   5   5   1   0
  0.1473309E+02  0.4192000E-09  0.4192000E-09  0.4192000E-09  0.5000000E-15
  1.000000000000000E-004
  CAR 
 BaZrO3 Band                             
     92.45105397    -48.84636414  301      4.49341120      1.00000000
    -48.846  0.0000E+00  0.0000E+00
    -48.375  0.0000E+00  0.0000E+00
    -47.904  0.0000E+00  0.0000E+00
    -47.433  0.0000E+00  0.0000E+00
    -46.962  0.0000E+00  0.0000E+00
    -46.491  0.0000E+00  0.0000E+00
    -46.020  0.0000E+00  0.0000E+00
    -45.549  0.0000E+00  0.0000E+00
    -45.078  0.0000E+00  0.0000E+00
    -44.607  0.0000E+00  0.0000E+00
    -44.136  0.0000E+00  0.0000E+00
    -43.665  0.0000E+00  0.0000E+00
    -43.194  0.0000E+00  0.0000E+00
    -42.723  0.0000E+00  0.0000E+00
    -42.252  0.4246E+01  0.2000E+01
    -41.781  0.0000E+00  0.2000E+01
    -41.311  0.0000E+00  0.2000E+01
    -40.840  0.0000E+00  0.2000E+01
    -40.369  0.0000E+00  0.2000E+01
    -39.898  0.0000E+00  0.2000E+01
    -39.427  0.0000E+00  0.2000E+01
    -38.956  0.0000E+00  0.2000E+01
    -38.485  0.0000E+00  0.2000E+01
    -38.014  0.0000E+00  0.2000E+01
    -37.543  0.0000E+00  0.2000E+01
    -37.072  0.0000E+00  0.2000E+01
    -36.601  0.0000E+00  0.2000E+01
    -36.130  0.0000E+00  0.2000E+01
    -35.659  0.0000E+00  0.2000E+01
    -35.188  0.0000E+00  0.2000E+01
    -34.717  0.0000E+00  0.2000E+01
    -34.246  0.0000E+00  0.2000E+01
    -33.775  0.0000E+00  0.2000E+01
    -33.304  0.0000E+00  0.2000E+01
    -32.833  0.0000E+00  0.2000E+01
    -32.362  0.0000E+00  0.2000E+01
    -31.891  0.0000E+00  0.2000E+01
    -31.420  0.0000E+00  0.2000E+01
    -30.949  0.0000E+00  0.2000E+01
    -30.478  0.0000E+00  0.2000E+01
    -30.007  0.0000E+00  0.2000E+01
    -29.536  0.0000E+00  0.2000E+01
    -29.065  0.0000E+00  0.2000E+01
    -28.594  0.0000E+00  0.2000E+01
    -28.123  0.0000E+00  0.2000E+01
    -27.652  0.0000E+00  0.2000E+01
    -27.181  0.0000E+00  0.2000E+01
    -26.710  0.0000E+00  0.2000E+01
    -26.239  0.0000E+00  0.2000E+01
    -25.768  0.0000E+00  0.2000E+01
    -25.297  0.0000E+00  0.2000E+01
    -24.826  0.0000E+00  0.2000E+01
    -24.355  0.0000E+00  0.2000E+01
    -23.884  0.0000E+00  0.2000E+01
    -23.413  0.0000E+00  0.2000E+01
    -22.942  0.0000E+00  0.2000E+01
    -22.471  0.0000E+00  0.2000E+01
    -22.000  0.0000E+00  0.2000E+01
    -21.529  0.1783E-10  0.2000E+01
    -21.058  0.4641E+01  0.4186E+01
    -20.587  0.1057E+02  0.1000E+02
    -20.116  0.0000E+00  0.1000E+02
    -19.645  0.0000E+00  0.1000E+02
    -19.174  0.0000E+00  0.1000E+02
    -18.703  0.0000E+00  0.1000E+02
    -18.232  0.0000E+00  0.1000E+02
    -17.761  0.0000E+00  0.1000E+02
    -17.290  0.0000E+00  0.1000E+02
    -16.819  0.0000E+00  0.1000E+02
    -16.348  0.0000E+00  0.1000E+02
    -15.877  0.0000E+00  0.1000E+02
    -15.406  0.0000E+00  0.1000E+02
    -14.935  0.0000E+00  0.1000E+02
    -14.464  0.0000E+00  0.1000E+02
    -13.993  0.0000E+00  0.1000E+02
    -13.522  0.0000E+00  0.1000E+02
    -13.051  0.0000E+00  0.1000E+02
    -12.580  0.3332E-09  0.1000E+02
    -12.109  0.2221E+01  0.1105E+02
    -11.638  0.3766E+01  0.1313E+02
    -11.167  0.2000E+01  0.1422E+02
    -10.696  0.3331E+01  0.1600E+02
    -10.225  0.0000E+00  0.1600E+02
     -9.754  0.0000E+00  0.1600E+02
     -9.283  0.0000E+00  0.1600E+02
     -8.812  0.0000E+00  0.1600E+02
     -8.341  0.0000E+00  0.1600E+02
     -7.870  0.0000E+00  0.1600E+02
     -7.399  0.0000E+00  0.1600E+02
     -6.928  0.2326E+00  0.1611E+02
     -6.457  0.2922E+01  0.1779E+02
     -5.986  0.5870E+01  0.2200E+02
     -5.515  0.0000E+00  0.2200E+02
     -5.044  0.0000E+00  0.2200E+02
     -4.573  0.0000E+00  0.2200E+02
     -4.102  0.0000E+00  0.2200E+02
     -3.631  0.0000E+00  0.2200E+02
     -3.160  0.0000E+00  0.2200E+02
     -2.689  0.0000E+00  0.2200E+02
     -2.218  0.0000E+00  0.2200E+02
     -1.747  0.0000E+00  0.2200E+02
     -1.276  0.0000E+00  0.2200E+02
     -0.805  0.0000E+00  0.2200E+02
     -0.334  0.0000E+00  0.2200E+02
      0.137  0.8141E-04  0.2200E+02
      0.608  0.3269E+01  0.2354E+02
      1.079  0.1960E+01  0.2459E+02
      1.550  0.2261E+01  0.2580E+02
      2.021  0.3781E+01  0.2804E+02
      2.492  0.5439E+01  0.3086E+02
      2.963  0.4252E+01  0.3330E+02
      3.434  0.4703E+01  0.3582E+02
      3.905  0.5132E+01  0.3863E+02
      4.376  0.1569E+01  0.4000E+02
      4.847  0.0000E+00  0.4000E+02
      5.318  0.0000E+00  0.4000E+02
      5.789  0.0000E+00  0.4000E+02
      6.260  0.0000E+00  0.4000E+02
      6.731  0.0000E+00  0.4000E+02
      7.202  0.2749E+00  0.4013E+02
      7.673  0.1537E+01  0.4114E+02
      8.144  0.9687E+00  0.4177E+02
      8.615  0.1574E+01  0.4255E+02
      9.086  0.1420E+01  0.4334E+02
      9.557  0.1357E+01  0.4408E+02
     10.028  0.5494E+01  0.4678E+02
     10.499  0.1965E+01  0.4800E+02
     10.970  0.1918E+01  0.4907E+02
     11.441  0.3789E+01  0.5100E+02
     11.912  0.3600E+01  0.5289E+02
     12.383  0.2603E+01  0.5429E+02
     12.854  0.5302E+01  0.5733E+02
     13.324  0.2773E+01  0.5889E+02
     13.795  0.6926E+00  0.5928E+02
     14.266  0.5001E+00  0.5958E+02
     14.737  0.8441E+00  0.6000E+02
     15.208  0.7597E+00  0.6045E+02
     15.679  0.2446E+01  0.6177E+02
     16.150  0.7441E+00  0.6221E+02
     16.621  0.1232E+01  0.6286E+02
     17.092  0.1778E+01  0.6374E+02
     17.563  0.1684E+01  0.6476E+02
     18.034  0.1494E+01  0.6565E+02
     18.505  0.1577E+01  0.6655E+02
     18.976  0.1278E+01  0.6721E+02
     19.447  0.2643E+01  0.6867E+02
     19.918  0.1136E+01  0.6934E+02
     20.389  0.1866E+01  0.7034E+02
     20.860  0.2747E+01  0.7180E+02
     21.331  0.2438E+01  0.7319E+02
     21.802  0.3570E+01  0.7509E+02
     22.273  0.1416E+01  0.7591E+02
     22.744  0.2161E+01  0.7706E+02
     23.215  0.3435E+01  0.7884E+02
     23.686  0.2072E+01  0.8003E+02
     24.157  0.1001E+01  0.8079E+02
     24.628  0.1510E+01  0.8161E+02
     25.099  0.3676E+01  0.8360E+02
     25.570  0.2500E+01  0.8515E+02
     26.041  0.2435E+01  0.8649E+02
     26.512  0.1548E+01  0.8738E+02
     26.983  0.1695E+01  0.8829E+02
     27.454  0.3277E+01  0.8999E+02
     27.925  0.2553E+01  0.9144E+02
     28.396  0.2010E+01  0.9266E+02
     28.867  0.1366E+01  0.9344E+02
     29.338  0.1252E+01  0.9409E+02
     29.809  0.2239E+01  0.9530E+02
     30.280  0.3069E+01  0.9695E+02
     30.751  0.1875E+01  0.9806E+02
     31.222  0.1844E+01  0.9914E+02
     31.693  0.1925E+01  0.1001E+03
     32.164  0.3220E+01  0.1019E+03
     32.635  0.4004E+01  0.1042E+03
     33.106  0.3059E+01  0.1059E+03
     33.577  0.3499E+01  0.1079E+03
     34.048  0.3262E+01  0.1097E+03
     34.519  0.4685E+01  0.1121E+03
     34.990  0.2501E+01  0.1135E+03
     35.461  0.2445E+01  0.1149E+03
     35.932  0.3551E+01  0.1168E+03
     36.403  0.3792E+01  0.1188E+03
     36.874  0.3864E+01  0.1210E+03
     37.345  0.3750E+01  0.1230E+03
     37.816  0.3685E+01  0.1251E+03
     38.287  0.2282E+01  0.1265E+03
     38.758  0.3224E+01  0.1283E+03
     39.229  0.3089E+01  0.1301E+03
     39.700  0.1473E+01  0.1310E+03
     40.171  0.3094E+01  0.1326E+03
     40.642  0.1878E+01  0.1337E+03
     41.113  0.2839E+01  0.1352E+03
     41.584  0.1921E+01  0.1364E+03
     42.055  0.2382E+01  0.1377E+03
     42.526  0.3525E+01  0.1396E+03
     42.997  0.3547E+01  0.1416E+03
     43.468  0.3085E+01  0.1433E+03
     43.939  0.3213E+01  0.1451E+03
     44.410  0.3170E+01  0.1468E+03
     44.881  0.3346E+01  0.1487E+03
     45.352  0.3485E+01  0.1506E+03
     45.823  0.2806E+01  0.1522E+03
     46.294  0.3450E+01  0.1540E+03
     46.765  0.5171E+01  0.1568E+03
     47.236  0.3660E+01  0.1588E+03
     47.707  0.3207E+01  0.1605E+03
     48.178  0.3314E+01  0.1623E+03
     48.649  0.3020E+01  0.1640E+03
     49.120  0.4036E+01  0.1660E+03
     49.591  0.2491E+01  0.1675E+03
     50.062  0.3096E+01  0.1692E+03
     50.533  0.3282E+01  0.1709E+03
     51.004  0.2689E+01  0.1725E+03
     51.475  0.3352E+01  0.1742E+03
     51.946  0.3637E+01  0.1762E+03
     52.417  0.2803E+01  0.1778E+03
     52.888  0.3854E+01  0.1798E+03
     53.359  0.3226E+01  0.1819E+03
     53.830  0.3746E+01  0.1839E+03
     54.301  0.3613E+01  0.1859E+03
     54.772  0.2516E+01  0.1873E+03
     55.243  0.2212E+01  0.1885E+03
     55.714  0.2399E+01  0.1899E+03
     56.185  0.2735E+01  0.1914E+03
     56.656  0.2689E+01  0.1929E+03
     57.127  0.2723E+01  0.1944E+03
     57.598  0.3606E+01  0.1964E+03
     58.069  0.3495E+01  0.1984E+03
     58.540  0.3632E+01  0.2004E+03
     59.011  0.4224E+01  0.2027E+03
     59.482  0.4206E+01  0.2050E+03
     59.953  0.4984E+01  0.2077E+03
     60.424  0.4041E+01  0.2101E+03
     60.895  0.3761E+01  0.2123E+03
     61.366  0.3180E+01  0.2140E+03
     61.837  0.3347E+01  0.2159E+03
     62.308  0.4804E+01  0.2184E+03
     62.779  0.3843E+01  0.2205E+03
     63.250  0.2851E+01  0.2221E+03
     63.721  0.2680E+01  0.2237E+03
     64.192  0.3192E+01  0.2253E+03
     64.663  0.2770E+01  0.2269E+03
     65.134  0.2900E+01  0.2284E+03
     65.605  0.3056E+01  0.2303E+03
     66.076  0.3508E+01  0.2322E+03
     66.547  0.3650E+01  0.2342E+03
     67.018  0.2716E+01  0.2358E+03
     67.489  0.3928E+01  0.2379E+03
     67.960  0.3401E+01  0.2399E+03
     68.430  0.3215E+01  0.2418E+03
     68.901  0.4066E+01  0.2439E+03
     69.372  0.4351E+01  0.2463E+03
     69.843  0.3432E+01  0.2482E+03
     70.314  0.3223E+01  0.2501E+03
     70.785  0.5203E+01  0.2528E+03
     71.256  0.3466E+01  0.2549E+03
     71.727  0.3190E+01  0.2566E+03
     72.198  0.3559E+01  0.2586E+03
     72.669  0.4751E+01  0.2612E+03
     73.140  0.5473E+01  0.2642E+03
     73.611  0.4502E+01  0.2669E+03
     74.082  0.4364E+01  0.2692E+03
     74.553  0.3363E+01  0.2712E+03
     75.024  0.3293E+01  0.2730E+03
     75.495  0.4561E+01  0.2756E+03
     75.966  0.4058E+01  0.2778E+03
     76.437  0.4616E+01  0.2802E+03
     76.908  0.3776E+01  0.2823E+03
     77.379  0.3901E+01  0.2844E+03
     77.850  0.4699E+01  0.2869E+03
     78.321  0.3497E+01  0.2889E+03
     78.792  0.4266E+01  0.2913E+03
     79.263  0.3718E+01  0.2935E+03
     79.734  0.3426E+01  0.2953E+03
     80.205  0.3497E+01  0.2973E+03
     80.676  0.3388E+01  0.2992E+03
     81.147  0.3527E+01  0.3012E+03
     81.618  0.5724E+01  0.3041E+03
     82.089  0.4751E+01  0.3068E+03
     82.560  0.4050E+01  0.3090E+03
     83.031  0.4105E+01  0.3112E+03
     83.502  0.6055E+01  0.3143E+03
     83.973  0.4356E+01  0.3167E+03
     84.444  0.3217E+01  0.3187E+03
     84.915  0.1784E+01  0.3197E+03
     85.386  0.4900E+00  0.3200E+03
     85.857  0.2123E-01  0.3200E+03
     86.328  0.2123E-01  0.3200E+03
     86.799  0.0000E+00  0.3200E+03
     87.270  0.0000E+00  0.3200E+03
     87.741  0.0000E+00  0.3200E+03
     88.212  0.0000E+00  0.3200E+03
     88.683  0.0000E+00  0.3200E+03
     89.154  0.0000E+00  0.3200E+03
     89.625  0.0000E+00  0.3200E+03
     90.096  0.0000E+00  0.3200E+03
     90.567  0.0000E+00  0.3200E+03
     91.038  0.0000E+00  0.3200E+03
     91.509  0.0000E+00  0.3200E+03
     91.980  0.0000E+00  0.3200E+03
     92.451  0.0000E+00  0.3200E+03
     92.45105397    -48.84636414  301      4.49341120      1.00000000
    -48.846  0.0000E+00  0.0000E+00  0.0000E+00  0.0000E+00  0.0000E+00  0.0000E+00  0.0000E+00  0.0000E+00  0.0000E+00
    -48.375  0.0000E+00  0.0000E+00  0.0000E+00  0.0000E+00  0.0000E+00  0.0000E+00  0.0000E+00  0.0000E+00  0.0000E+00
    -47.904  0.0000E+00  0.0000E+00  0.0000E+00  0.0000E+00  0.0000E+00  0.0000E+00  0.0000E+00  0.0000E+00  0.0000E+00
    -47.433  0.0000E+00  0.0000E+00  0.0000E+00  0.0000E+00  0.0000E+00  0.0000E+00  0.0000E+00  0.0000E+00  0.0000E+00
    -46.962  0.0000E+00  0.0000E+00  0.0000E+00  0.0000E+00  0.0000E+00  0.0000E+00  0.0000E+00  0.0000E+00  0.0000E+00
    -46.491  0.0000E+00  0.0000E+00  0.0000E+00  0.0000E+00  0.0000E+00  0.0000E+00  0.0000E+00  0.0000E+00  0.0000E+00
    -46.020  0.0000E+00  0.0000E+00  0.0000E+00  0.0000E+00  0.0000E+00  0.0000E+00  0.0000E+00  0.0000E+00  0.0000E+00
    -45.549  0.0000E+00  0.0000E+00  0.0000E+00  0.0000E+00  0.0000E+00  0.0000E+00  0.0000E+00  0.0000E+00  0.0000E+00
    -45.078  0.0000E+00  0.0000E+00  0.0000E+00  0.0000E+00  0.0000E+00  0.0000E+00  0.0000E+00  0.0000E+00  0.0000E+00
    -44.607  0.0000E+00  0.0000E+00  0.0000E+00  0.0000E+00  0.0000E+00  0.0000E+00  0.0000E+00  0.0000E+00  0.0000E+00
    -44.136  0.0000E+00  0.0000E+00  0.0000E+00  0.0000E+00  0.0000E+00  0.0000E+00  0.0000E+00  0.0000E+00  0.0000E+00
    -43.665  0.0000E+00  0.0000E+00  0.0000E+00  0.0000E+00  0.0000E+00  0.0000E+00  0.0000E+00  0.0000E+00  0.0000E+00
    -43.194  0.0000E+00  0.0000E+00  0.0000E+00  0.0000E+00  0.0000E+00  0.0000E+00  0.0000E+00  0.0000E+00  0.0000E+00
    -42.723  0.0000E+00  0.0000E+00  0.0000E+00  0.0000E+00  0.0000E+00  0.0000E+00  0.0000E+00  0.0000E+00  0.0000E+00
    -42.252  0.7763E-05  0.1811E-05  0.1811E-05  0.1811E-05  0.1916E-05  0.1916E-05  0.5858E-12  0.1916E-05  0.5858E-12
    -41.781  0.0000E+00  0.0000E+00  0.0000E+00  0.0000E+00  0.0000E+00  0.0000E+00  0.0000E+00  0.0000E+00  0.0000E+00
    -41.311  0.0000E+00  0.0000E+00  0.0000E+00  0.0000E+00  0.0000E+00  0.0000E+00  0.0000E+00  0.0000E+00  0.0000E+00
    -40.840  0.0000E+00  0.0000E+00  0.0000E+00  0.0000E+00  0.0000E+00  0.0000E+00  0.0000E+00  0.0000E+00  0.0000E+00
    -40.369  0.0000E+00  0.0000E+00  0.0000E+00  0.0000E+00  0.0000E+00  0.0000E+00  0.0000E+00  0.0000E+00  0.0000E+00
    -39.898  0.0000E+00  0.0000E+00  0.0000E+00  0.0000E+00  0.0000E+00  0.0000E+00  0.0000E+00  0.0000E+00  0.0000E+00
    -39.427  0.0000E+00  0.0000E+00  0.0000E+00  0.0000E+00  0.0000E+00  0.0000E+00  0.0000E+00  0.0000E+00  0.0000E+00
    -38.956  0.0000E+00  0.0000E+00  0.0000E+00  0.0000E+00  0.0000E+00  0.0000E+00  0.0000E+00  0.0000E+00  0.0000E+00
    -38.485  0.0000E+00  0.0000E+00  0.0000E+00  0.0000E+00  0.0000E+00  0.0000E+00  0.0000E+00  0.0000E+00  0.0000E+00
    -38.014  0.0000E+00  0.0000E+00  0.0000E+00  0.0000E+00  0.0000E+00  0.0000E+00  0.0000E+00  0.0000E+00  0.0000E+00
    -37.543  0.0000E+00  0.0000E+00  0.0000E+00  0.0000E+00  0.0000E+00  0.0000E+00  0.0000E+00  0.0000E+00  0.0000E+00
    -37.072  0.0000E+00  0.0000E+00  0.0000E+00  0.0000E+00  0.0000E+00  0.0000E+00  0.0000E+00  0.0000E+00  0.0000E+00
    -36.601  0.0000E+00  0.0000E+00  0.0000E+00  0.0000E+00  0.0000E+00  0.0000E+00  0.0000E+00  0.0000E+00  0.0000E+00
    -36.130  0.0000E+00  0.0000E+00  0.0000E+00  0.0000E+00  0.0000E+00  0.0000E+00  0.0000E+00  0.0000E+00  0.0000E+00
    -35.659  0.0000E+00  0.0000E+00  0.0000E+00  0.0000E+00  0.0000E+00  0.0000E+00  0.0000E+00  0.0000E+00  0.0000E+00
    -35.188  0.0000E+00  0.0000E+00  0.0000E+00  0.0000E+00  0.0000E+00  0.0000E+00  0.0000E+00  0.0000E+00  0.0000E+00
    -34.717  0.0000E+00  0.0000E+00  0.0000E+00  0.0000E+00  0.0000E+00  0.0000E+00  0.0000E+00  0.0000E+00  0.0000E+00
    -34.246  0.0000E+00  0.0000E+00  0.0000E+00  0.0000E+00  0.0000E+00  0.0000E+00  0.0000E+00  0.0000E+00  0.0000E+00
    -33.775  0.0000E+00  0.0000E+00  0.0000E+00  0.0000E+00  0.0000E+00  0.0000E+00  0.0000E+00  0.0000E+00  0.0000E+00
    -33.304  0.0000E+00  0.0000E+00  0.0000E+00  0.0000E+00  0.0000E+00  0.0000E+00  0.0000E+00  0.0000E+00  0.0000E+00
    -32.833  0.0000E+00  0.0000E+00  0.0000E+00  0.0000E+00  0.0000E+00  0.0000E+00  0.0000E+00  0.0000E+00  0.0000E+00
    -32.362  0.0000E+00  0.0000E+00  0.0000E+00  0.0000E+00  0.0000E+00  0.0000E+00  0.0000E+00  0.0000E+00  0.0000E+00
    -31.891  0.0000E+00  0.0000E+00  0.0000E+00  0.0000E+00  0.0000E+00  0.0000E+00  0.0000E+00  0.0000E+00  0.0000E+00
    -31.420  0.0000E+00  0.0000E+00  0.0000E+00  0.0000E+00  0.0000E+00  0.0000E+00  0.0000E+00  0.0000E+00  0.0000E+00
    -30.949  0.0000E+00  0.0000E+00  0.0000E+00  0.0000E+00  0.0000E+00  0.0000E+00  0.0000E+00  0.0000E+00  0.0000E+00
    -30.478  0.0000E+00  0.0000E+00  0.0000E+00  0.0000E+00  0.0000E+00  0.0000E+00  0.0000E+00  0.0000E+00  0.0000E+00
    -30.007  0.0000E+00  0.0000E+00  0.0000E+00  0.0000E+00  0.0000E+00  0.0000E+00  0.0000E+00  0.0000E+00  0.0000E+00
    -29.536  0.0000E+00  0.0000E+00  0.0000E+00  0.0000E+00  0.0000E+00  0.0000E+00  0.0000E+00  0.0000E+00  0.0000E+00
    -29.065  0.0000E+00  0.0000E+00  0.0000E+00  0.0000E+00  0.0000E+00  0.0000E+00  0.0000E+00  0.0000E+00  0.0000E+00
    -28.594  0.0000E+00  0.0000E+00  0.0000E+00  0.0000E+00  0.0000E+00  0.0000E+00  0.0000E+00  0.0000E+00  0.0000E+00
    -28.123  0.0000E+00  0.0000E+00  0.0000E+00  0.0000E+00  0.0000E+00  0.0000E+00  0.0000E+00  0.0000E+00  0.0000E+00
    -27.652  0.0000E+00  0.0000E+00  0.0000E+00  0.0000E+00  0.0000E+00  0.0000E+00  0.0000E+00  0.0000E+00  0.0000E+00
    -27.181  0.0000E+00  0.0000E+00  0.0000E+00  0.0000E+00  0.0000E+00  0.0000E+00  0.0000E+00  0.0000E+00  0.0000E+00
    -26.710  0.0000E+00  0.0000E+00  0.0000E+00  0.0000E+00  0.0000E+00  0.0000E+00  0.0000E+00  0.0000E+00  0.0000E+00
    -26.239  0.0000E+00  0.0000E+00  0.0000E+00  0.0000E+00  0.0000E+00  0.0000E+00  0.0000E+00  0.0000E+00  0.0000E+00
    -25.768  0.0000E+00  0.0000E+00  0.0000E+00  0.0000E+00  0.0000E+00  0.0000E+00  0.0000E+00  0.0000E+00  0.0000E+00
    -25.297  0.0000E+00  0.0000E+00  0.0000E+00  0.0000E+00  0.0000E+00  0.0000E+00  0.0000E+00  0.0000E+00  0.0000E+00
    -24.826  0.0000E+00  0.0000E+00  0.0000E+00  0.0000E+00  0.0000E+00  0.0000E+00  0.0000E+00  0.0000E+00  0.0000E+00
    -24.355  0.0000E+00  0.0000E+00  0.0000E+00  0.0000E+00  0.0000E+00  0.0000E+00  0.0000E+00  0.0000E+00  0.0000E+00
    -23.884  0.0000E+00  0.0000E+00  0.0000E+00  0.0000E+00  0.0000E+00  0.0000E+00  0.0000E+00  0.0000E+00  0.0000E+00
    -23.413  0.0000E+00  0.0000E+00  0.0000E+00  0.0000E+00  0.0000E+00  0.0000E+00  0.0000E+00  0.0000E+00  0.0000E+00
    -22.942  0.0000E+00  0.0000E+00  0.0000E+00  0.0000E+00  0.0000E+00  0.0000E+00  0.0000E+00  0.0000E+00  0.0000E+00
    -22.471  0.0000E+00  0.0000E+00  0.0000E+00  0.0000E+00  0.0000E+00  0.0000E+00  0.0000E+00  0.0000E+00  0.0000E+00
    -22.000  0.0000E+00  0.0000E+00  0.0000E+00  0.0000E+00  0.0000E+00  0.0000E+00  0.0000E+00  0.0000E+00  0.0000E+00
    -21.529  0.7967E-11  0.2231E-16  0.2231E-16  0.2231E-16  0.6133E-19  0.6133E-19  0.4079E-15  0.6133E-19  0.4079E-15
    -21.058  0.2017E+01  0.1548E-03  0.1548E-03  0.1548E-03  0.6904E-04  0.6904E-04  0.2869E-04  0.6904E-04  0.2869E-04
    -20.587  0.1911E+01  0.2564E-03  0.2564E-03  0.2564E-03  0.1144E-03  0.1144E-03  0.1022E-04  0.1144E-03  0.1022E-04
    -20.116  0.0000E+00  0.0000E+00  0.0000E+00  0.0000E+00  0.0000E+00  0.0000E+00  0.0000E+00  0.0000E+00  0.0000E+00
    -19.645  0.0000E+00  0.0000E+00  0.0000E+00  0.0000E+00  0.0000E+00  0.0000E+00  0.0000E+00  0.0000E+00  0.0000E+00
    -19.174  0.0000E+00  0.0000E+00  0.0000E+00  0.0000E+00  0.0000E+00  0.0000E+00  0.0000E+00  0.0000E+00  0.0000E+00
    -18.703  0.0000E+00  0.0000E+00  0.0000E+00  0.0000E+00  0.0000E+00  0.0000E+00  0.0000E+00  0.0000E+00  0.0000E+00
    -18.232  0.0000E+00  0.0000E+00  0.0000E+00  0.0000E+00  0.0000E+00  0.0000E+00  0.0000E+00  0.0000E+00  0.0000E+00
    -17.761  0.0000E+00  0.0000E+00  0.0000E+00  0.0000E+00  0.0000E+00  0.0000E+00  0.0000E+00  0.0000E+00  0.0000E+00
    -17.290  0.0000E+00  0.0000E+00  0.0000E+00  0.0000E+00  0.0000E+00  0.0000E+00  0.0000E+00  0.0000E+00  0.0000E+00
    -16.819  0.0000E+00  0.0000E+00  0.0000E+00  0.0000E+00  0.0000E+00  0.0000E+00  0.0000E+00  0.0000E+00  0.0000E+00
    -16.348  0.0000E+00  0.0000E+00  0.0000E+00  0.0000E+00  0.0000E+00  0.0000E+00  0.0000E+00  0.0000E+00  0.0000E+00
    -15.877  0.0000E+00  0.0000E+00  0.0000E+00  0.0000E+00  0.0000E+00  0.0000E+00  0.0000E+00  0.0000E+00  0.0000E+00
    -15.406  0.0000E+00  0.0000E+00  0.0000E+00  0.0000E+00  0.0000E+00  0.0000E+00  0.0000E+00  0.0000E+00  0.0000E+00
    -14.935  0.0000E+00  0.0000E+00  0.0000E+00  0.0000E+00  0.0000E+00  0.0000E+00  0.0000E+00  0.0000E+00  0.0000E+00
    -14.464  0.0000E+00  0.0000E+00  0.0000E+00  0.0000E+00  0.0000E+00  0.0000E+00  0.0000E+00  0.0000E+00  0.0000E+00
    -13.993  0.0000E+00  0.0000E+00  0.0000E+00  0.0000E+00  0.0000E+00  0.0000E+00  0.0000E+00  0.0000E+00  0.0000E+00
    -13.522  0.0000E+00  0.0000E+00  0.0000E+00  0.0000E+00  0.0000E+00  0.0000E+00  0.0000E+00  0.0000E+00  0.0000E+00
    -13.051  0.0000E+00  0.0000E+00  0.0000E+00  0.0000E+00  0.0000E+00  0.0000E+00  0.0000E+00  0.0000E+00  0.0000E+00
    -12.580  0.1959E-13  0.4141E-11  0.4141E-11  0.4141E-11  0.4602E-15  0.4602E-15  0.4178E-15  0.4602E-15  0.4178E-15
    -12.109  0.1463E-01  0.1487E-01  0.1487E-01  0.1487E-01  0.2526E-03  0.2526E-03  0.6478E-04  0.2526E-03  0.6478E-04
    -11.638  0.2194E-02  0.3713E-02  0.3713E-02  0.3713E-02  0.5088E-03  0.5088E-03  0.2000E-02  0.5088E-03  0.2000E-02
    -11.167  0.1636E-02  0.6892E-02  0.6892E-02  0.6892E-02  0.6545E-03  0.6545E-03  0.4038E-03  0.6545E-03  0.4038E-03
    -10.696  0.4636E-02  0.1038E-01  0.1038E-01  0.1038E-01  0.1648E-02  0.1648E-02  0.7176E-03  0.1648E-02  0.7176E-03
    -10.225  0.0000E+00  0.0000E+00  0.0000E+00  0.0000E+00  0.0000E+00  0.0000E+00  0.0000E+00  0.0000E+00  0.0000E+00
     -9.754  0.0000E+00  0.0000E+00  0.0000E+00  0.0000E+00  0.0000E+00  0.0000E+00  0.0000E+00  0.0000E+00  0.0000E+00
     -9.283  0.0000E+00  0.0000E+00  0.0000E+00  0.0000E+00  0.0000E+00  0.0000E+00  0.0000E+00  0.0000E+00  0.0000E+00
     -8.812  0.0000E+00  0.0000E+00  0.0000E+00  0.0000E+00  0.0000E+00  0.0000E+00  0.0000E+00  0.0000E+00  0.0000E+00
     -8.341  0.0000E+00  0.0000E+00  0.0000E+00  0.0000E+00  0.0000E+00  0.0000E+00  0.0000E+00  0.0000E+00  0.0000E+00
     -7.870  0.0000E+00  0.0000E+00  0.0000E+00  0.0000E+00  0.0000E+00  0.0000E+00  0.0000E+00  0.0000E+00  0.0000E+00
     -7.399  0.0000E+00  0.0000E+00  0.0000E+00  0.0000E+00  0.0000E+00  0.0000E+00  0.0000E+00  0.0000E+00  0.0000E+00
     -6.928  0.9161E-06  0.6432E-01  0.6432E-01  0.6432E-01  0.9458E-06  0.9458E-06  0.1893E-05  0.9458E-06  0.1893E-05
     -6.457  0.9697E-04  0.8351E+00  0.8351E+00  0.8351E+00  0.8696E-04  0.8696E-04  0.2166E-03  0.8696E-04  0.2166E-03
     -5.986  0.1677E-03  0.1757E+01  0.1757E+01  0.1757E+01  0.7368E-04  0.7368E-04  0.7270E-04  0.7368E-04  0.7270E-04
     -5.515  0.0000E+00  0.0000E+00  0.0000E+00  0.0000E+00  0.0000E+00  0.0000E+00  0.0000E+00  0.0000E+00  0.0000E+00
     -5.044  0.0000E+00  0.0000E+00  0.0000E+00  0.0000E+00  0.0000E+00  0.0000E+00  0.0000E+00  0.0000E+00  0.0000E+00
     -4.573  0.0000E+00  0.0000E+00  0.0000E+00  0.0000E+00  0.0000E+00  0.0000E+00  0.0000E+00  0.0000E+00  0.0000E+00
     -4.102  0.0000E+00  0.0000E+00  0.0000E+00  0.0000E+00  0.0000E+00  0.0000E+00  0.0000E+00  0.0000E+00  0.0000E+00
     -3.631  0.0000E+00  0.0000E+00  0.0000E+00  0.0000E+00  0.0000E+00  0.0000E+00  0.0000E+00  0.0000E+00  0.0000E+00
     -3.160  0.0000E+00  0.0000E+00  0.0000E+00  0.0000E+00  0.0000E+00  0.0000E+00  0.0000E+00  0.0000E+00  0.0000E+00
     -2.689  0.0000E+00  0.0000E+00  0.0000E+00  0.0000E+00  0.0000E+00  0.0000E+00  0.0000E+00  0.0000E+00  0.0000E+00
     -2.218  0.0000E+00  0.0000E+00  0.0000E+00  0.0000E+00  0.0000E+00  0.0000E+00  0.0000E+00  0.0000E+00  0.0000E+00
     -1.747  0.0000E+00  0.0000E+00  0.0000E+00  0.0000E+00  0.0000E+00  0.0000E+00  0.0000E+00  0.0000E+00  0.0000E+00
     -1.276  0.0000E+00  0.0000E+00  0.0000E+00  0.0000E+00  0.0000E+00  0.0000E+00  0.0000E+00  0.0000E+00  0.0000E+00
     -0.805  0.0000E+00  0.0000E+00  0.0000E+00  0.0000E+00  0.0000E+00  0.0000E+00  0.0000E+00  0.0000E+00  0.0000E+00
     -0.334  0.0000E+00  0.0000E+00  0.0000E+00  0.0000E+00  0.0000E+00  0.0000E+00  0.0000E+00  0.0000E+00  0.0000E+00
      0.137  0.2043E-05  0.1475E-08  0.1475E-08  0.1475E-08  0.2159E-11  0.2159E-11  0.1004E-05  0.2159E-11  0.1004E-05
      0.608  0.1377E-01  0.1767E-02  0.1767E-02  0.1767E-02  0.1727E-02  0.1727E-02  0.6629E-02  0.1727E-02  0.6629E-02
      1.079  0.1240E-01  0.4472E-02  0.4472E-02  0.4472E-02  0.3816E-02  0.3816E-02  0.2800E-02  0.3816E-02  0.2800E-02
      1.550  0.9592E-02  0.4005E-01  0.4005E-01  0.4005E-01  0.3560E-02  0.3560E-02  0.2491E-02  0.3560E-02  0.2491E-02
      2.021  0.5993E-02  0.2367E-01  0.2367E-01  0.2367E-01  0.3608E-01  0.3608E-01  0.7883E-02  0.3608E-01  0.7883E-02
      2.492  0.1660E-01  0.2838E-01  0.2838E-01  0.2838E-01  0.3669E-01  0.3669E-01  0.2017E-01  0.3669E-01  0.2017E-01
      2.963  0.9878E-02  0.3518E-01  0.3518E-01  0.3518E-01  0.6483E-02  0.6483E-02  0.1445E-01  0.6483E-02  0.1445E-01
      3.434  0.4177E-02  0.2566E-01  0.2566E-01  0.2566E-01  0.6707E-02  0.6707E-02  0.5675E-02  0.6707E-02  0.5675E-02
      3.905  0.1547E-02  0.1016E-01  0.1016E-01  0.1016E-01  0.6385E-02  0.6385E-02  0.4257E-02  0.6385E-02  0.4257E-02
      4.376  0.8969E-05  0.1927E-03  0.1927E-03  0.1927E-03  0.8074E-03  0.8074E-03  0.3701E-02  0.8074E-03  0.3701E-02
      4.847  0.0000E+00  0.0000E+00  0.0000E+00  0.0000E+00  0.0000E+00  0.0000E+00  0.0000E+00  0.0000E+00  0.0000E+00
      5.318  0.0000E+00  0.0000E+00  0.0000E+00  0.0000E+00  0.0000E+00  0.0000E+00  0.0000E+00  0.0000E+00  0.0000E+00
      5.789  0.0000E+00  0.0000E+00  0.0000E+00  0.0000E+00  0.0000E+00  0.0000E+00  0.0000E+00  0.0000E+00  0.0000E+00
      6.260  0.0000E+00  0.0000E+00  0.0000E+00  0.0000E+00  0.0000E+00  0.0000E+00  0.0000E+00  0.0000E+00  0.0000E+00
      6.731  0.0000E+00  0.0000E+00  0.0000E+00  0.0000E+00  0.0000E+00  0.0000E+00  0.0000E+00  0.0000E+00  0.0000E+00
      7.202  0.7617E-08  0.6196E-06  0.6196E-06  0.6196E-06  0.8500E-02  0.8500E-02  0.8913E-06  0.8500E-02  0.8913E-06
      7.673  0.6115E-05  0.6807E-04  0.6807E-04  0.6807E-04  0.3611E-01  0.3611E-01  0.1200E-02  0.3611E-01  0.1200E-02
      8.144  0.2053E-04  0.1335E-03  0.1335E-03  0.1335E-03  0.1621E-01  0.1621E-01  0.5417E-02  0.1621E-01  0.5417E-02
      8.615  0.4748E-04  0.2924E-03  0.2924E-03  0.2924E-03  0.1319E-01  0.1319E-01  0.1828E+00  0.1319E-01  0.1828E+00
      9.086  0.3195E-03  0.7251E-03  0.7251E-03  0.7251E-03  0.1073E-01  0.1073E-01  0.1567E+00  0.1073E-01  0.1567E+00
      9.557  0.9557E-03  0.1004E-02  0.1004E-02  0.1004E-02  0.1062E-01  0.1062E-01  0.1130E+00  0.1062E-01  0.1130E+00
     10.028  0.7126E-01  0.4061E-02  0.4061E-02  0.4061E-02  0.2062E+00  0.2062E+00  0.1690E+00  0.2062E+00  0.1690E+00
     10.499  0.5972E-01  0.1568E-02  0.1568E-02  0.1568E-02  0.5048E-01  0.5048E-01  0.2464E+00  0.5048E-01  0.2464E+00
     10.970  0.7760E-01  0.3423E-02  0.3423E-02  0.3423E-02  0.8063E-01  0.8063E-01  0.1980E+00  0.8063E-01  0.1980E+00
     11.441  0.4061E-01  0.4889E-02  0.4889E-02  0.4889E-02  0.2763E+00  0.2763E+00  0.1376E+00  0.2763E+00  0.1376E+00
     11.912  0.1790E-01  0.4052E-02  0.4052E-02  0.4052E-02  0.1493E+00  0.1493E+00  0.1236E+00  0.1493E+00  0.1236E+00
     12.383  0.1184E-01  0.5075E-02  0.5075E-02  0.5075E-02  0.2855E+00  0.2855E+00  0.1305E+00  0.2855E+00  0.1305E+00
     12.854  0.1269E-01  0.4461E-02  0.4461E-02  0.4461E-02  0.7675E+00  0.7675E+00  0.2046E+00  0.7675E+00  0.2046E+00
     13.324  0.1604E-01  0.9973E-02  0.9973E-02  0.9973E-02  0.2134E+00  0.2134E+00  0.2407E+00  0.2134E+00  0.2407E+00
     13.795  0.1688E-01  0.4681E-02  0.4681E-02  0.4681E-02  0.1013E-01  0.1013E-01  0.6010E-01  0.1013E-01  0.6010E-01
     14.266  0.1715E-01  0.4098E-02  0.4098E-02  0.4098E-02  0.6966E-02  0.6966E-02  0.2292E-02  0.6966E-02  0.2292E-02
     14.737  0.1330E+00  0.5204E-02  0.5204E-02  0.5204E-02  0.6307E-02  0.6307E-02  0.3770E-02  0.6307E-02  0.3770E-02
     15.208  0.9515E-01  0.7060E-02  0.7060E-02  0.7060E-02  0.5857E-02  0.5857E-02  0.8470E-02  0.5857E-02  0.8470E-02
     15.679  0.2268E+00  0.3611E-01  0.3611E-01  0.3611E-01  0.6232E-02  0.6232E-02  0.1264E+00  0.6232E-02  0.1264E+00
     16.150  0.4883E-02  0.8030E-02  0.8030E-02  0.8030E-02  0.1415E-02  0.1415E-02  0.6892E-02  0.1415E-02  0.6892E-02
     16.621  0.3812E-01  0.6016E-02  0.6016E-02  0.6016E-02  0.9386E-03  0.9386E-03  0.9230E-02  0.9386E-03  0.9230E-02
     17.092  0.4795E-01  0.9197E-02  0.9197E-02  0.9197E-02  0.1255E-02  0.1255E-02  0.9505E-02  0.1255E-02  0.9505E-02
     17.563  0.3620E-01  0.3149E-01  0.3149E-01  0.3149E-01  0.4300E-02  0.4300E-02  0.1175E-01  0.4300E-02  0.1175E-01
     18.034  0.3634E-01  0.3108E-01  0.3108E-01  0.3108E-01  0.6244E-02  0.6244E-02  0.2846E-01  0.6244E-02  0.2846E-01
     18.505  0.4978E-01  0.1820E-01  0.1820E-01  0.1820E-01  0.5955E-02  0.5955E-02  0.2613E-01  0.5955E-02  0.2613E-01
     18.976  0.2969E-01  0.2374E-01  0.2374E-01  0.2374E-01  0.8242E-02  0.8242E-02  0.3461E-01  0.8242E-02  0.3461E-01
     19.447  0.1457E-01  0.6014E-01  0.6014E-01  0.6014E-01  0.8658E-02  0.8658E-02  0.1776E-01  0.8658E-02  0.1776E-01
     19.918  0.1221E-01  0.2313E-01  0.2313E-01  0.2313E-01  0.1206E-01  0.1206E-01  0.2090E-01  0.1206E-01  0.2090E-01
     20.389  0.2346E-01  0.2119E-01  0.2119E-01  0.2119E-01  0.2351E-01  0.2351E-01  0.3216E-01  0.2351E-01  0.3216E-01
     20.860  0.1883E-01  0.2272E-01  0.2272E-01  0.2272E-01  0.4807E-01  0.4807E-01  0.3121E-01  0.4807E-01  0.3121E-01
     21.331  0.1370E-01  0.2361E-01  0.2361E-01  0.2361E-01  0.6456E-01  0.6456E-01  0.2728E-01  0.6456E-01  0.2728E-01
     21.802  0.5974E-02  0.4968E-01  0.4968E-01  0.4968E-01  0.1097E+00  0.1097E+00  0.2568E-01  0.1097E+00  0.2568E-01
     22.273  0.1132E-01  0.1015E-01  0.1015E-01  0.1015E-01  0.1901E-01  0.1901E-01  0.2874E-01  0.1901E-01  0.2874E-01
     22.744  0.9290E-02  0.1280E-01  0.1280E-01  0.1280E-01  0.1151E-01  0.1151E-01  0.3031E-01  0.1151E-01  0.3031E-01
     23.215  0.4621E-02  0.9926E-02  0.9926E-02  0.9926E-02  0.7733E-02  0.7733E-02  0.2881E-01  0.7733E-02  0.2881E-01
     23.686  0.1005E-01  0.1022E-01  0.1022E-01  0.1022E-01  0.5256E-02  0.5256E-02  0.3990E-01  0.5256E-02  0.3990E-01
     24.157  0.7637E-02  0.4593E-02  0.4593E-02  0.4593E-02  0.5667E-02  0.5667E-02  0.3036E-01  0.5667E-02  0.3036E-01
     24.628  0.4489E-02  0.4223E-02  0.4223E-02  0.4223E-02  0.6028E-02  0.6028E-02  0.6643E-01  0.6028E-02  0.6643E-01