    5    5    1    1
  0.1473309E+02  0.4192000E-09  0.4192000E-09  0.4192000E-09  0.5000000E-15
  1.000000000000000E-004
  CAR 
 BaZrO3 Band                             
     40    200    160
 
  0.0000000E+00  0.0000000E+00  0.0000000E+00  0.5000000E-02
      1        -42.423754   1.000000
      2        -21.103481   1.000000
      3        -20.814043   1.000000
      4        -20.814043   1.000000
      5        -20.814043   1.000000
      6        -12.170293   1.000000
      7        -11.907960   1.000000
      8        -11.907960   1.000000
      9         -6.410248   1.000000
     10         -6.410248   1.000000
     11         -6.410248   1.000000
     12          2.681896   1.000000
     13          2.681896   1.000000
     14          2.681896   1.000000
     15          3.123267   1.000000
     16          3.123267   1.000000
     17          3.123267   1.000000
     18          3.963509   1.000000
     19          3.963509   1.000000
     20          3.963509   1.000000
     21          7.202136   0.000000
     22          7.202136   0.000000
     23          7.202136   0.000000
     24          8.470913   0.000000
     25          8.470913   0.000000
     26          9.888300   0.000000
     27         11.690052   0.000000
     28         11.690052   0.000000
     29         12.439945   0.000000
     30         12.439945   0.000000
     31         12.439945   0.000000
     32         19.334850   0.000000
     33         19.334850   0.000000
     34         19.334850   0.000000
     35         19.910774   0.000000
     36         21.361255   0.000000
     37         22.934643   0.000000
     38         22.934643   0.000000
     39         22.934643   0.000000
     40         24.698332   0.000000
     41         24.698332   0.000000
     42         27.359638   0.000000
     43         27.359638   0.000000
     44         27.359638   0.000000
     45         28.547617   0.000000
     46         28.547617   0.000000
     47         28.547617   0.000000
     48         32.182974   0.000000
     49         32.182974   0.000000
     50         32.239450   0.000000
     51         32.239450   0.000000
     52         32.239450   0.000000
     53         32.554508   0.000000
     54         32.554508   0.000000
     55         32.554508   0.000000
     56         33.517998   0.000000
     57         34.143060   0.000000
     58         34.143060   0.000000
     59         34.143060   0.000000
     60         37.158576   0.000000
     61         37.158576   0.000000
     62         37.158576   0.000000
     63         38.481879   0.000000
     64         38.487318   0.000000
     65         38.782064   0.000000
     66         39.974384   0.000000
     67         39.974384   0.000000
     68         39.974384   0.000000
     69         40.625361   0.000000
     70         40.625361   0.000000
     71         42.172498   0.000000
     72         42.172498   0.000000
     73         42.172498   0.000000
     74         43.320232   0.000000
     75         43.320232   0.000000
     76         43.320232   0.000000
     77         45.346285   0.000000
     78         45.346285   0.000000
     79         45.346285   0.000000
     80         46.667476   0.000000
     81         46.667476   0.000000
     82         46.667476   0.000000
     83         48.776637   0.000000
     84         48.776637   0.000000
     85         49.769998   0.000000
     86         49.769998   0.000000
     87         50.520934   0.000000
     88         50.520934   0.000000
     89         50.520934   0.000000
     90         52.943369   0.000000
     91         52.943369   0.000000
     92         52.943369   0.000000
     93         54.179916   0.000000
     94         54.179916   0.000000
     95         54.179916   0.000000
     96         56.801417   0.000000
     97         59.196577   0.000000
     98         59.196577   0.000000
     99         59.196577   0.000000
    100         59.430064   0.000000
    101         59.430064   0.000000
    102         59.430064   0.000000
    103         59.525038   0.000000
    104         59.525038   0.000000
    105         59.713591   0.000000
    106         59.955238   0.000000
    107         59.955238   0.000000
    108         59.955238   0.000000
    109         60.246910   0.000000
    110         65.152788   0.000000
    111         65.152788   0.000000
    112         66.413687   0.000000
    113         67.500035   0.000000
    114         67.500035   0.000000
    115         67.500035   0.000000
    116         68.528220   0.000000
    117         68.528220   0.000000
    118         68.528220   0.000000
    119         69.368813   0.000000
    120         69.368813   0.000000
    121         69.368813   0.000000
    122         69.920339   0.000000
    123         69.920339   0.000000
    124         72.180918   0.000000
    125         72.180918   0.000000
    126         72.180918   0.000000
    127         72.419687   0.000000
    128         72.419687   0.000000
    129         72.419687   0.000000
    130         72.573358   0.000000
    131         72.573358   0.000000
    132         72.745314   0.000000
    133         73.016151   0.000000
    134         73.016151   0.000000
    135         73.016151   0.000000
    136         73.711931   0.000000
    137         73.711931   0.000000
    138         73.711931   0.000000
    139         77.276738   0.000000
    140         77.276738   0.000000
    141         77.779040   0.000000
    142         77.779040   0.000000
    143         77.779040   0.000000
    144         77.835863   0.000000
    145         78.324199   0.000000
    146         78.324199   0.000000
    147         78.324199   0.000000
    148         79.193512   0.000000
    149         79.193512   0.000000
    150         79.193512   0.000000
    151         81.618829   0.000000
    152         81.618829   0.000000
    153         83.168278   0.000000
    154         83.627840   0.000000
    155         83.627840   0.000000
    156         83.627840   0.000000
    157         83.660227   0.000000
    158         83.660227   0.000000
    159         83.660227   0.000000
    160         84.293889   0.000000
 
  0.1282051E-01  0.0000000E+00  0.0000000E+00  0.5000000E-02
      1        -42.423748   1.000000
      2        -21.103737   1.000000
      3        -20.814109   1.000000
      4        -20.814020   1.000000
      5        -20.814020   1.000000
      6        -12.170016   1.000000
      7        -11.907908   1.000000
      8        -11.907068   1.000000
      9         -6.410131   1.000000
     10         -6.410131   1.000000
     11         -6.409869   1.000000
     12          2.679530   1.000000
     13          2.681326   1.000000
     14          2.681326   1.000000
     15          3.121426   1.000000
     16          3.121426   1.000000
     17          3.121797   1.000000
     18          3.958077   1.000000
     19          3.962817   1.000000
     20          3.962817   1.000000
     21          7.202791   0.000000
     22          7.206453   0.000000
     23          7.206453   0.000000
     24          8.473793   0.000000
     25          8.473951   0.000000
     26          9.892268   0.000000
     27         11.690070   0.000000
     28         11.695917   0.000000
     29         12.437784   0.000000
     30         12.440880   0.000000
     31         12.440880   0.000000
     32         19.317303   0.000000
     33         19.335913   0.000000
     34         19.335913   0.000000
     35         19.929122   0.000000
     36         21.364458   0.000000
     37         22.929794   0.000000
     38         22.935204   0.000000
     39         22.935204   0.000000
     40         24.674710   0.000000
     41         24.698714   0.000000
     42         27.348616   0.000000
     43         27.348616   0.000000
     44         27.360194   0.000000
     45         28.545087   0.000000
     46         28.545087   0.000000
     47         28.563042   0.000000
     48         32.176014   0.000000
     49         32.181876   0.000000
     50         32.222581   0.000000
     51         32.222581   0.000000
     52         32.237353   0.000000
     53         32.552820   0.000000
     54         32.569700   0.000000
     55         32.569700   0.000000
     56         33.534069   0.000000
     57         34.148903   0.000000
     58         34.148903   0.000000
     59         34.150728   0.000000
     60         37.159469   0.000000
     61         37.167343   0.000000
     62         37.167343   0.000000
     63         38.484091   0.000000
     64         38.486231   0.000000
     65         38.784071   0.000000
     66         39.932708   0.000000
     67         39.977601   0.000000
     68         39.977601   0.000000
     69         40.609392   0.000000
     70         40.651865   0.000000
     71         42.167024   0.000000
     72         42.167024   0.000000
     73         42.186476   0.000000
     74         43.298481   0.000000
     75         43.298481   0.000000
     76         43.346209   0.000000
     77         45.335247   0.000000
     78         45.375218   0.000000
     79         45.375218   0.000000
     80         46.611682   0.000000
     81         46.675110   0.000000
     82         46.675110   0.000000
     83         48.790925   0.000000
     84         48.838494   0.000000
     85         49.703851   0.000000
     86         49.767860   0.000000
     87         50.519398   0.000000
     88         50.519398   0.000000
     89         50.588959   0.000000
     90         52.935575   0.000000
     91         52.939450   0.000000
     92         52.939450   0.000000
     93         54.169122   0.000000
     94         54.169122   0.000000
     95         54.173110   0.000000
     96         56.798178   0.000000
     97         59.068992   0.000000
     98         59.068992   0.000000
     99         59.145681   0.000000
    100         59.149608   0.000000
    101         59.507570   0.000000
    102         59.507570   0.000000
    103         59.518498   0.000000
    104         59.767657   0.000000
    105         59.814142   0.000000
    106         59.851655   0.000000
    107         60.026652   0.000000
    108         60.026652   0.000000
    109         60.360424   0.000000
    110         65.142948   0.000000
    111         65.158583   0.000000
    112         66.396310   0.000000
    113         67.452959   0.000000
    114         67.452959   0.000000
    115         67.489605   0.000000
    116         68.545283   0.000000
    117         68.555589   0.000000
    118         68.555589   0.000000
    119         69.250345   0.000000
    120         69.367026   0.000000
    121         69.367026   0.000000
    122         69.918176   0.000000
    123         70.011289   0.000000
    124         71.905309   0.000000
    125         72.173265   0.000000
    126         72.173265   0.000000
    127         72.355209   0.000000
    128         72.355209   0.000000
    129         72.410306   0.000000
    130         72.566644   0.000000
    131         72.712454   0.000000
    132         72.851662   0.000000
    133         73.041779   0.000000
    134         73.082010   0.000000
    135         73.082010   0.000000
    136         73.723671   0.000000
    137         73.723671   0.000000
    138         73.788164   0.000000
    139         77.246535   0.000000
    140         77.274331   0.000000
    141         77.628850   0.000000
    142         77.628850   0.000000
    143         77.702388   0.000000
    144         77.780149   0.000000
    145         78.456608   0.000000
    146         78.456608   0.000000
    147         78.498853   0.000000
    148         79.174934   0.000000
    149         79.235473   0.000000
    150         79.235473   0.000000
    151         81.605737   0.000000
    152         81.607403   0.000000
    153         83.168104   0.000000
    154         83.337865   0.000000
    155         83.337865   0.000000
    156         83.620203   0.000000
    157         83.708928   0.000000
    158         83.737676   0.000000
    159         83.737676   0.000000
    160         84.287221   0.000000
 
  0.2564103E-01  0.0000000E+00  0.0000000E+00  0.5000000E-02
      1        -42.423730   1.000000
      2        -21.104512   1.000000
      3        -20.814366   1.000000
      4        -20.813973   1.000000
      5        -20.813973   1.000000
      6        -12.169244   1.000000
      7        -11.907773   1.000000
      8        -11.904398   1.000000
      9         -6.409789   1.000000
     10         -6.409789   1.000000
     11         -6.408759   1.000000
     12          2.672085   1.000000
     13          2.679488   1.000000
     14          2.679488   1.000000
     15          3.115817   1.000000
     16          3.115817   1.000000
     17          3.117258   1.000000
     18          3.941870   1.000000
     19          3.960736   1.000000
     20          3.960736   1.000000
     21          7.204750   0.000000
     22          7.219345   0.000000
     23          7.219345   0.000000
     24          8.482415   0.000000
     25          8.483041   0.000000
     26          9.904109   0.000000
     27         11.690113   0.000000
     28         11.713427   0.000000
     29         12.431321   0.000000
     30         12.443671   0.000000
     31         12.443671   0.000000
     32         19.270055   0.000000
     33         19.339101   0.000000
     34         19.339101   0.000000
     35         19.978694   0.000000
     36         21.374032   0.000000
     37         22.915284   0.000000
     38         22.936873   0.000000
     39         22.936873   0.000000
     40         24.605344   0.000000
     41         24.699837   0.000000
     42         27.315863   0.000000
     43         27.315863   0.000000
     44         27.361853   0.000000
     45         28.537429   0.000000
     46         28.537429   0.000000
     47         28.607823   0.000000
     48         32.149093   0.000000
     49         32.178021   0.000000
     50         32.178021   0.000000
     51         32.178683   0.000000
     52         32.237890   0.000000
     53         32.547800   0.000000
     54         32.609133   0.000000
     55         32.609133   0.000000
     56         33.581508   0.000000
     57         34.166580   0.000000
     58         34.166580   0.000000
     59         34.173562   0.000000
     60         37.162146   0.000000
     61         37.193085   0.000000
     62         37.193085   0.000000
     63         38.474112   0.000000
     64         38.498928   0.000000
     65         38.789973   0.000000
     66         39.825582   0.000000
     67         39.987343   0.000000
     68         39.987343   0.000000
     69         40.563961   0.000000
     70         40.713511   0.000000
     71         42.150502   0.000000
     72         42.150502   0.000000
     73         42.228253   0.000000
     74         43.237590   0.000000
     75         43.237590   0.000000
     76         43.421940   0.000000
     77         45.302682   0.000000
     78         45.457165   0.000000
     79         45.457165   0.000000
     80         46.460990   0.000000
     81         46.698471   0.000000
     82         46.698471   0.000000
     83         48.833218   0.000000
     84         49.007291   0.000000
     85         49.549983   0.000000
     86         49.761410   0.000000
     87         50.514684   0.000000
     88         50.514684   0.000000
     89         50.748099   0.000000
     90         52.911775   0.000000
     91         52.927209   0.000000
     92         52.927209   0.000000
     93         54.137368   0.000000
     94         54.137368   0.000000
     95         54.152786   0.000000
     96         56.788116   0.000000
     97         58.824482   0.000000
     98         58.845970   0.000000
     99         58.845970   0.000000
    100         59.044251   0.000000
    101         59.481927   0.000000
    102         59.612631   0.000000
    103         59.612631   0.000000
    104         59.702544   0.000000
    105         59.894176   0.000000
    106         60.149371   0.000000
    107         60.207907   0.000000
    108         60.207907   0.000000
    109         60.555925   0.000000
    110         65.112512   0.000000
    111         65.175922   0.000000
    112         66.345093   0.000000
    113         67.325377   0.000000
    114         67.325377   0.000000
    115         67.458888   0.000000
    116         68.593228   0.000000
    117         68.624513   0.000000
    118         68.624513   0.000000
    119         69.010868   0.000000
    120         69.361058   0.000000
    121         69.361058   0.000000
    122         69.911676   0.000000
    123         70.171973   0.000000
    124         71.499299   0.000000
    125         72.042869   0.000000
    126         72.042869   0.000000
    127         72.338373   0.000000
    128         72.338373   0.000000
    129         72.381607   0.000000
    130         72.550265   0.000000
    131         72.637578   0.000000
    132         73.114261   0.000000
    133         73.202294   0.000000
    134         73.202294   0.000000
    135         73.265714   0.000000
    136         73.766616   0.000000
    137         73.766616   0.000000
    138         73.990864   0.000000
    139         77.113228   0.000000
    140         77.267381   0.000000
    141         77.359672   0.000000
    142         77.359672   0.000000
    143         77.555745   0.000000
    144         77.783457   0.000000
    145         78.647606   0.000000
    146         78.647606   0.000000
    147         78.811071   0.000000
    148         79.120149   0.000000
    149         79.384547   0.000000
    150         79.384547   0.000000
    151         81.572263   0.000000
    152         81.575186   0.000000
    153         82.888140   0.000000
    154         82.888140   0.000000
    155         83.169327   0.000000
    156         83.597093   0.000000
    157         83.739122   0.000000
    158         83.739122   0.000000
    159         83.845001   0.000000
    160         84.267371   0.000000
 
  0.3846154E-01  0.0000000E+00  0.0000000E+00  0.5000000E-02
      1        -42.423701   1.000000
      2        -21.105807   1.000000
      3        -20.814785   1.000000
      4        -20.813912   1.000000
      5        -20.813912   1.000000
      6        -12.168113   1.000000
      7        -11.907565   1.000000
      8        -11.899819   1.000000
      9         -6.409227   1.000000
     10         -6.409227   1.000000
     11         -6.406916   1.000000
     12          2.659658   1.000000
     13          2.676333   1.000000
     14          2.676333   1.000000
     15          3.106512   1.000000
     16          3.106512   1.000000
     17          3.109719   1.000000
     18          3.915240   1.000000
     19          3.957320   1.000000
     20          3.957320   1.000000
     21          7.208002   0.000000
     22          7.240679   0.000000
     23          7.240679   0.000000
     24          8.496744   0.000000
     25          8.498112   0.000000
     26          9.923700   0.000000
     27         11.690178   0.000000
     28         11.742370   0.000000
     29         12.420607   0.000000
     30         12.448270   0.000000
     31         12.448270   0.000000
     32         19.203441   0.000000
     33         19.344432   0.000000
     34         19.344432   0.000000
     35         20.049119   0.000000
     36         21.389910   0.000000
     37         22.891294   0.000000
     38         22.939657   0.000000
     39         22.939657   0.000000
     40         24.494336   0.000000
     41         24.701637   0.000000
     42         27.262276   0.000000
     43         27.262276   0.000000
     44         27.364586   0.000000
     45         28.524461   0.000000
     46         28.524461   0.000000
     47         28.677918   0.000000
     48         32.098320   0.000000
     49         32.115257   0.000000
     50         32.115257   0.000000
     51         32.173698   0.000000
     52         32.247048   0.000000
     53         32.539582   0.000000
     54         32.663130   0.000000
     55         32.663130   0.000000
     56         33.658568   0.000000
     57         34.196513   0.000000
     58         34.196513   0.000000
     59         34.211159   0.000000
     60         37.166599   0.000000
     61         37.234194   0.000000
     62         37.234194   0.000000
     63         38.456494   0.000000
     64         38.518987   0.000000
     65         38.799411   0.000000
     66         39.681489   0.000000
     67         40.004089   0.000000
     68         40.004089   0.000000
     69         40.495588   0.000000
     70         40.782839   0.000000
     71         42.122777   0.000000
     72         42.122777   0.000000
     73         42.297240   0.000000
     74         43.148166   0.000000
     75         43.148166   0.000000
     76         43.541727   0.000000
     77         45.250138   0.000000
     78         45.580019   0.000000
     79         45.580019   0.000000
     80         46.248584   0.000000
     81         46.739076   0.000000
     82         46.739076   0.000000
     83         48.901963   0.000000
     84         49.249809   0.000000
     85         49.362507   0.000000
     86         49.750543   0.000000
     87         50.506810   0.000000
     88         50.506810   0.000000
     89         50.944480   0.000000
     90         52.872292   0.000000
     91         52.906399   0.000000
     92         52.906399   0.000000
     93         54.086512   0.000000
     94         54.086512   0.000000
     95         54.119291   0.000000
     96         56.770546   0.000000
     97         58.508566   0.000000
     98         58.603629   0.000000
     99         58.603629   0.000000
    100         58.921488   0.000000
    101         59.365224   0.000000
    102         59.627908   0.000000
    103         59.722985   0.000000
    104         59.722985   0.000000
    105         60.051890   0.000000
    106         60.443489   0.000000
    107         60.443489   0.000000
    108         60.488332   0.000000
    109         60.763766   0.000000
    110         65.058512   0.000000
    111         65.204670   0.000000
    112         66.262970   0.000000
    113         67.142428   0.000000
    114         67.142428   0.000000
    115         67.409569   0.000000
    116         68.647228   0.000000
    117         68.711902   0.000000
    118         68.711902   0.000000
    119         68.767426   0.000000
    120         69.349260   0.000000
    121         69.349260   0.000000
    122         69.900817   0.000000
    123         70.315537   0.000000
    124         71.082704   0.000000
    125         71.798676   0.000000
    126         71.798676   0.000000
    127         72.333088   0.000000
    128         72.427212   0.000000
    129         72.427212   0.000000
    130         72.531004   0.000000
    131         72.555955   0.000000
    132         73.225380   0.000000
    133         73.293366   0.000000
    134         73.293366   0.000000
    135         73.695658   0.000000
    136         73.857582   0.000000
    137         73.857582   0.000000
    138         74.279012   0.000000
    139         76.869416   0.000000
    140         77.083827   0.000000
    141         77.083827   0.000000
    142         77.256812   0.000000
    143         77.517100   0.000000
    144         77.788941   0.000000
    145         78.762730   0.000000
    146         78.762730   0.000000
    147         79.033523   0.000000
    148         79.144783   0.000000
    149         79.657637   0.000000
    150         79.657637   0.000000
    151         81.528386   0.000000
    152         81.531194   0.000000
    153         82.394644   0.000000
    154         82.394644   0.000000
    155         83.174124   0.000000
    156         83.557872   0.000000
    157         83.713804   0.000000
    158         83.713808   0.000000
    159         84.047770   0.000000
    160         84.234753   0.000000
 
  0.5128205E-01  0.0000000E+00  0.0000000E+00  0.5000000E-02
      1        -42.423660   1.000000
      2        -21.107624   1.000000
      3        -20.815350   1.000000
      4        -20.813827   1.000000
      5        -20.813827   1.000000
      6        -12.166828   1.000000
      7        -11.907275   1.000000
      8        -11.893142   1.000000
      9         -6.408447   1.000000
     10         -6.408447   1.000000
     11         -6.404356   1.000000
     12          2.642231   1.000000
     13          2.671924   1.000000
     14          2.671924   1.000000
     15          3.093671   1.000000
     16          3.093671   1.000000
     17          3.099288   1.000000
     18          3.878760   1.000000
     19          3.952666   1.000000
     20          3.952666   1.000000
     21          7.212540   0.000000
     22          7.270242   0.000000
     23          7.270242   0.000000
     24          8.516718   0.000000
     25          8.519051   0.000000
     26          9.950842   0.000000
     27         11.690269   0.000000
     28         11.782392   0.000000
     29         12.405730   0.000000
     30         12.454600   0.000000
     31         12.454600   0.000000
     32         19.125607   0.000000
     33         19.351934   0.000000
     34         19.351934   0.000000
     35         20.132194   0.000000
     36         21.411986   0.000000
     37         22.858107   0.000000
     38         22.943569   0.000000
     39         22.943569   0.000000
     40         24.347391   0.000000
     41         24.704019   0.000000
     42         27.189219   0.000000
     43         27.189219   0.000000
     44         27.368351   0.000000
     45         28.505947   0.000000
     46         28.505947   0.000000
     47         28.767770   0.000000
     48         32.027461   0.000000
     49         32.039826   0.000000
     50         32.039826   0.000000
     51         32.167386   0.000000
     52         32.263592   0.000000
     53         32.528387   0.000000
     54         32.725989   0.000000
     55         32.725989   0.000000
     56         33.763241   0.000000
     57         34.239201   0.000000
     58         34.239201   0.000000
     59         34.262885   0.000000
     60         37.172816   0.000000
     61         37.288135   0.000000
     62         37.288135   0.000000
     63         38.429811   0.000000
     64         38.544707   0.000000
     65         38.811783   0.000000
     66         39.518285   0.000000
     67         40.028689   0.000000
     68         40.028689   0.000000
     69         40.412859   0.000000
     70         40.844628   0.000000
     71         42.083705   0.000000
     72         42.083705   0.000000
     73         42.391518   0.000000
     74         43.042204   0.000000
     75         43.042204   0.000000
     76         43.698340   0.000000
     77         45.179868   0.000000
     78         45.728852   0.000000
     79         45.728852   0.000000
     80         46.002323   0.000000
     81         46.799798   0.000000
     82         46.799798   0.000000
     83         48.994932   0.000000
     84         49.165474   0.000000
     85         49.538057   0.000000
     86         49.735091   0.000000
     87         50.495975   0.000000
     88         50.495975   0.000000
     89         51.154233   0.000000
     90         52.817648   0.000000
     91         52.876670   0.000000
     92         52.876670   0.000000
     93         54.019470   0.000000
     94         54.019470   0.000000
     95         54.073295   0.000000
     96         56.744398   0.000000
     97         58.199521   0.000000
     98         58.357603   0.000000
     99         58.357603   0.000000
    100         58.798273   0.000000
    101         59.195107   0.000000
    102         59.612944   0.000000
    103         59.852072   0.000000
    104         59.852072   0.000000
    105         60.223373   0.000000
    106         60.701988   0.000000
    107         60.701988   0.000000
    108         60.828892   0.000000
    109         60.972173   0.000000
    110         64.975390   0.000000
    111         65.244635   0.000000
    112         66.155527   0.000000
    113         66.923392   0.000000
    114         66.923392   0.000000
    115         67.344238   0.000000
    116         68.462042   0.000000
    117         68.794890   0.000000
    118         68.801897   0.000000
    119         68.801897   0.000000
    120         69.328061   0.000000
    121         69.328061   0.000000
    122         69.885553   0.000000
    123         70.420001   0.000000
    124         70.665236   0.000000
    125         71.523205   0.000000
    126         71.523205   0.000000
    127         72.264034   0.000000
    128         72.486652   0.000000
    129         72.513129   0.000000
    130         72.561855   0.000000
    131         72.561855   0.000000
    132         73.332446   0.000000
    133         73.332446   0.000000
    134         73.368650   0.000000
    135         73.998466   0.000000
    136         73.998466   0.000000
    137         74.131807   0.000000
    138         74.623944   0.000000
    139         76.592423   0.000000
    140         76.824957   0.000000
    141         76.824957   0.000000
    142         77.244465   0.000000
    143         77.531599   0.000000
    144         77.796607   0.000000
    145         78.815648   0.000000
    146         78.815648   0.000000
    147         78.922055   0.000000
    148         79.472092   0.000000
    149         80.003590   0.000000
    150         80.003590   0.000000
    151         81.477844   0.000000
    152         81.494473   0.000000
    153         81.905047   0.000000
    154         81.905047   0.000000
    155         83.182663   0.000000
    156         83.501107   0.000000
    157         83.674265   0.000000