 vasp.6.4.3 19Mar24 (build Jul 01 2024 12:12:31) complex                        
  
 executed on             LinuxIFC date 2025.11.29  19:38:08
 running  160 mpi-ranks, on    1 nodes
 distrk:  each k-point on  160 cores,    1 groups
 distr:  one band on NCORE=   1 cores,  160 groups


--------------------------------------------------------------------------------------------------------


 INCAR:
   SYSTEM = BaZrO3 Band
   ENCUT = 600
   EDIFF = 1E-8
   ICHARG = 11
   ISMEAR = 0
   SIGMA = 0.05
   PREC = Accurate
   LREAL = .FALSE.
   LASPH = .TRUE.
   NSW = 0
   IBRION = -1
   LORBIT = 11
   LWAVE = .FALSE.
   LCHARG = .FALSE.

 POTCAR:    PAW_PBE Ba_sv 06Sep2000               
 POTCAR:    PAW_PBE Zr_sv 04Jan2005               
 POTCAR:    PAW_PBE O 08Apr2002                   
 -----------------------------------------------------------------------------
|                                                                             |
|           W    W    AA    RRRRR   N    N  II  N    N   GGGG   !!!           |
|           W    W   A  A   R    R  NN   N  II  NN   N  G    G  !!!           |
|           W    W  A    A  R    R  N N  N  II  N N  N  G       !!!           |
|           W WW W  AAAAAA  RRRRR   N  N N  II  N  N N  G  GGG   !            |
|           WW  WW  A    A  R   R   N   NN  II  N   NN  G    G                |
|           W    W  A    A  R    R  N    N  II  N    N   GGGG   !!!           |
|                                                                             |
|     For optimal performance we recommend to set                             |
|       NCORE = 2 up to number-of-cores-per-socket                            |
|     NCORE specifies how many cores store one orbital (NPAR=cpu/NCORE).      |
|     This setting can greatly improve the performance of VASP for DFT.       |
|     The default, NCORE=1 might be grossly inefficient on modern             |
|     multi-core architectures or massively parallel machines. Do your        |
|     own testing! More info at https://www.vasp.at/wiki/index.php/NCORE      |
|     Unfortunately you need to use the default for GW and RPA                |
|     calculations (for HF NCORE is supported but not extensively tested      |
|     yet).                                                                   |
|                                                                             |
 -----------------------------------------------------------------------------

 POTCAR:    PAW_PBE Ba_sv 06Sep2000               
   SHA256 =  db99e82e473f9273fc04f241d4a23dc413358649e2d1724098d22351b75b003b Ba_sv/POTCAR          
   COPYR  = (c) Copyright 06Sep2000 Georg Kresse                                                    
   COPYR  = This file is part of the software VASP. Any use, copying, and all other rights are regul
   COPYR  = If you do not have a valid VASP license, you may not use, copy or distribute this file. 
   VRHFIN =Ba: 5s5p6s                                                                               
   LEXCH  = PE                                                                                      
   EATOM  =   700.8560 eV,   51.5115 Ry                                                             
                                                                                                    
   TITEL  = PAW_PBE Ba_sv 06Sep2000                                                                 
   LULTRA =        F    use ultrasoft PP ?                                                          
   IUNSCR =        1    unscreen: 0-lin 1-nonlin 2-no                                               
   RPACOR =    2.400    partial core radius                                                         
   POMASS =  137.327; ZVAL   =   10.000    mass and valenz                                          
   RCORE  =    2.800    outmost cutoff radius                                                       
   RWIGS  =    3.740; RWIGS  =    1.979    wigner-seitz radius (au A)                               
   ENMAX  =  187.181; ENMIN  =  140.386 eV                                                          
   RCLOC  =    2.516    cutoff for local pot                                                        
   LCOR   =        T    correct aug charges                                                         
   LPAW   =        T    paw PP                                                                      
   EAUG   =  351.165                                                                                
   DEXC   =    0.000                                                                                
   RMAX   =    2.865    core radius for proj-oper                                                   
   RAUG   =    1.300    factor for augmentation sphere                                              
   RDEP   =    2.976    radius for radial grids                                                     
   RDEPT  =    2.289    core radius for aug-charge                                                  
                                                                                                    
   Atomic configuration                                                                             
   13 entries                                                                                       
     n  l   j            E        occ.                                                              
     1  0  0.50    -37249.5946   2.0000                                                             
     2  0  0.50     -5887.1925   2.0000                                                             
     2  1  1.50     -5278.3977   6.0000                                                             
     3  0  0.50     -1242.7293   2.0000                                                             
     3  1  1.50     -1047.6609   6.0000                                                             
     3  2  2.50      -764.6158  10.0000                                                             
     4  0  0.50      -243.8228   2.0000                                                             
     4  1  1.50      -180.9218   6.0000                                                             
     4  2  2.50       -89.6477  10.0000                                                             
     5  0  0.50       -33.6549   2.0000                                                             
     6  0  0.50        -3.2247   1.9900                                                             
     5  1  1.50       -18.7193   6.0000                                                             
     5  2  2.50        -2.0115   0.0100                                                             
   Description                                                                                      
     l       E           TYP  RCUT    TYP  RCUT                                                     
     0    -33.6549039     23  2.800                                                                 
     0     -3.2246942     23  2.800                                                                 
     1    -18.7193050     23  2.700                                                                 
     1     27.2116520     23  2.700                                                                 
     2     -2.0115002     23  2.700                                                                 
     2      0.3057420     23  2.700                                                                 
  local pseudopotential read in
  partial core-charges read in
  partial kinetic energy density read in
  atomic valenz-charges read in
  non local Contribution for L=           0  read in
    real space projection operators read in
  non local Contribution for L=           0  read in
    real space projection operators read in
  non local Contribution for L=           1  read in
    real space projection operators read in
  non local Contribution for L=           1  read in
    real space projection operators read in
  non local Contribution for L=           2  read in
    real space projection operators read in
  non local Contribution for L=           2  read in
    real space projection operators read in
    PAW grid and wavefunctions read in
 
   number of l-projection  operators is LMAX  =           6
   number of lm-projection operators is LMMAX =          18
 
 POTCAR:    PAW_PBE Zr_sv 04Jan2005               
   SHA256 =  25aed69cb10325f9d37c5c68912b61a17387d1f8e4f1d804860ffa10c8a4bf76 Zr_sv/POTCAR          
   COPYR  = (c) Copyright 04Jan2005 Georg Kresse                                                    
   COPYR  = This file is part of the software VASP. Any use, copying, and all other rights are regul
   COPYR  = If you do not have a valid VASP license, you may not use, copy or distribute this file. 
   VRHFIN =Zr: 4s4p5s4d                                                                             
   LEXCH  = PE                                                                                      
   EATOM  =  1284.2219 eV,   94.3876 Ry                                                             
                                                                                                    
   TITEL  = PAW_PBE Zr_sv 04Jan2005                                                                 
   LULTRA =        F    use ultrasoft PP ?                                                          
   IUNSCR =        1    unscreen: 0-lin 1-nonlin 2-no                                               
   RPACOR =    2.200    partial core radius                                                         
   POMASS =   91.224; ZVAL   =   12.000    mass and valenz                                          
   RCORE  =    2.500    outmost cutoff radius                                                       
   RWIGS  =    3.070; RWIGS  =    1.625    wigner-seitz radius (au A)                               
   ENMAX  =  229.898; ENMIN  =  172.424 eV                                                          
   ICORE  =        3    local potential                                                             
   LCOR   =        T    correct aug charges                                                         
   LPAW   =        T    paw PP                                                                      
   EAUG   =  461.257                                                                                
   DEXC   =    0.000                                                                                
   RMAX   =    2.561    core radius for proj-oper                                                   
   RAUG   =    1.300    factor for augmentation sphere                                              
   RDEP   =    2.597    radius for radial grids                                                     
   RDEPT  =    2.007    core radius for aug-charge                                                  
                                                                                                    
   Atomic configuration                                                                             
   11 entries                                                                                       
     n  l   j            E        occ.                                                              
     1  0  0.50    -17820.0161   2.0000                                                             
     2  0  0.50     -2467.0882   2.0000                                                             
     2  1  1.50     -2199.6095   6.0000                                                             
     3  0  0.50      -402.4863   2.0000                                                             
     3  1  1.50      -315.3675   6.0000                                                             
     3  2  2.50      -172.4472  10.0000                                                             
     4  0  0.50       -52.4146   2.0000                                                             
     5  0  0.50        -3.8421   1.0000                                                             
     4  1  1.50       -30.5054   6.0000                                                             
     4  2  2.50        -2.3341   3.0000                                                             
     4  3  2.50        -1.3606   0.0000                                                             
   Description                                                                                      
     l       E           TYP  RCUT    TYP  RCUT                                                     
     0    -52.4145962     23  2.200                                                                 
     0     -3.8421270     23  2.500                                                                 
     1    -30.5053914     23  2.200                                                                 
     1     20.4087390     23  2.200                                                                 
     2     -2.3340816     23  2.500                                                                 
     2     -0.6120942     23  2.500                                                                 
     3     -4.0817478     23  2.500                                                                 
  local pseudopotential read in
  partial core-charges read in
  partial kinetic energy density read in
  atomic valenz-charges read in
  non local Contribution for L=           0  read in
    real space projection operators read in
  non local Contribution for L=           0  read in
    real space projection operators read in
  non local Contribution for L=           1  read in
    real space projection operators read in
  non local Contribution for L=           1  read in
    real space projection operators read in
  non local Contribution for L=           2  read in
    real space projection operators read in
  non local Contribution for L=           2  read in
    real space projection operators read in
    PAW grid and wavefunctions read in
 
   number of l-projection  operators is LMAX  =           6
   number of lm-projection operators is LMMAX =          18
 
 POTCAR:    PAW_PBE O 08Apr2002                   
   SHA256 =  818f92134a0a090dccd8ba1447fa70422a3b330e708bb4f08108d8ae51209ddf O/POTCAR              
   COPYR  = (c) Copyright 08Apr2002 Georg Kresse                                                    
   COPYR  = This file is part of the software VASP. Any use, copying, and all other rights are regul
   COPYR  = If you do not have a valid VASP license, you may not use, copy or distribute this file. 
   VRHFIN =O: s2p4                                                                                  
   LEXCH  = PE                                                                                      
   EATOM  =   432.3788 eV,   31.7789 Ry                                                             
                                                                                                    
   TITEL  = PAW_PBE O 08Apr2002                                                                     
   LULTRA =        F    use ultrasoft PP ?                                                          
   IUNSCR =        1    unscreen: 0-lin 1-nonlin 2-no                                               
   RPACOR =    1.200    partial core radius                                                         
   POMASS =   16.000; ZVAL   =    6.000    mass and valenz                                          
   RCORE  =    1.520    outmost cutoff radius                                                       
   RWIGS  =    1.550; RWIGS  =    0.820    wigner-seitz radius (au A)                               
   ENMAX  =  400.000; ENMIN  =  300.000 eV                                                          
   ICORE  =        2    local potential                                                             
   LCOR   =        T    correct aug charges                                                         
   LPAW   =        T    paw PP                                                                      
   EAUG   =  605.392                                                                                
   DEXC   =    0.000                                                                                
   RMAX   =    1.553    core radius for proj-oper                                                   
   RAUG   =    1.300    factor for augmentation sphere                                              
   RDEP   =    1.550    radius for radial grids                                                     
   RDEPT  =    1.329    core radius for aug-charge                                                  
                                                                                                    
   Atomic configuration                                                                             
    4 entries                                                                                       
     n  l   j            E        occ.                                                              
     1  0  0.50      -514.6923   2.0000                                                             
     2  0  0.50       -23.9615   2.0000                                                             
     2  1  0.50        -9.0305   4.0000                                                             
     3  2  1.50        -9.5241   0.0000                                                             
   Description                                                                                      
     l       E           TYP  RCUT    TYP  RCUT                                                     
     0    -23.9615318     23  1.200                                                                 
     0     -9.5240782     23  1.200                                                                 
     1     -9.0304911     23  1.520                                                                 
     1      8.1634956     23  1.520                                                                 
     2     -9.5240782      7  1.500                                                                 
  local pseudopotential read in
  partial core-charges read in
  partial kinetic energy density read in
  kinetic energy density of atom read in
  atomic valenz-charges read in
  non local Contribution for L=           0  read in
    real space projection operators read in
  non local Contribution for L=           0  read in
    real space projection operators read in
  non local Contribution for L=           1  read in
    real space projection operators read in
  non local Contribution for L=           1  read in
    real space projection operators read in
    PAW grid and wavefunctions read in
 
   number of l-projection  operators is LMAX  =           4
   number of lm-projection operators is LMMAX =           8
 
  PAW_PBE Ba_sv 06Sep2000               :
 energy of atom  1       EATOM= -700.8560
 kinetic energy error for atom=    0.0003 (will be added to EATOM!!)
  PAW_PBE Zr_sv 04Jan2005               :
 energy of atom  2       EATOM=-1284.2219
 kinetic energy error for atom=    0.0018 (will be added to EATOM!!)
  PAW_PBE O 08Apr2002                   :
 energy of atom  3       EATOM= -432.3788
 kinetic energy error for atom=    0.0168 (will be added to EATOM!!)
 
 
 POSCAR: Ba Zr O
  positions in cartesian coordinates
  velocities in cartesian coordinates
  No initial velocities read in


 exchange-correlation table for PE
   RHO(1)=    0.500       N(1)  =     2000
   RHO(2)=  100.500       N(2)  =     4000

 VTST: version 4.1, (05/19/21)

 CHAIN: initializing optimizer
 
 OPT: Using VASP Dynamics algorithm
 CHAIN: Read ICHAIN            0
 
 POSCAR: Ba Zr O
  positions in cartesian coordinates
  velocities in cartesian coordinates
  No initial velocities read in
 


--------------------------------------------------------------------------------------------------------


 ion  position               nearest neighbor table
   1  0.000  0.000  0.000-   3 2.96   4 2.96   5 2.96   4 2.96   5 2.96   3 2.96   5 2.96   5 2.96
                             3 2.96   4 2.96   4 2.96   3 2.96   2 3.63   2 3.63   2 3.63   2 3.63
   2  0.500  0.500  0.500-   3 2.10   4 2.10   5 2.10   3 2.10   4 2.10   5 2.10   1 3.63   1 3.63
                             1 3.63   1 3.63   1 3.63   1 3.63   1 3.63   1 3.63
   3  0.500  0.500  0.000-   2 2.10   2 2.10   1 2.96   1 2.96   1 2.96   1 2.96
   4  0.500  0.000  0.500-   2 2.10   2 2.10   1 2.96   1 2.96   1 2.96   1 2.96
   5  0.000  0.500  0.500-   2 2.10   2 2.10   1 2.96   1 2.96   1 2.96   1 2.96
 
  LATTYP: Found a simple cubic cell.
 ALAT       =     4.1920000000
  
  Lattice vectors:
  
 A1 = (   4.1920000000,   0.0000000000,   0.0000000000)
 A2 = (   0.0000000000,   4.1920000000,   0.0000000000)
 A3 = (   0.0000000000,   0.0000000000,   4.1920000000)


Analysis of symmetry for initial positions (statically):
=====================================================================
 Subroutine PRICEL returns:
 Original cell was already a primitive cell.
 

 Routine SETGRP: Setting up the symmetry group for a 
 simple cubic supercell.


 Subroutine GETGRP returns: Found 48 space group operations
 (whereof 48 operations were pure point group operations)
 out of a pool of 48 trial point group operations.


The static configuration has the point symmetry O_h .


Analysis of symmetry for dynamics (positions and initial velocities):
=====================================================================
 Subroutine PRICEL returns:
 Original cell was already a primitive cell.
 

 Routine SETGRP: Setting up the symmetry group for a 
 simple cubic supercell.


 Subroutine GETGRP returns: Found 48 space group operations
 (whereof 48 operations were pure point group operations)
 out of a pool of 48 trial point group operations.


The dynamic configuration has the point symmetry O_h .


 Subroutine INISYM returns: Found 48 space group operations
 (whereof 48 operations are pure point group operations),
 and found     1 'primitive' translations


----------------------------------------------------------------------------------------

                                     Primitive cell                                     

  volume of cell :      73.6654

  direct lattice vectors                    reciprocal lattice vectors
     4.192000000  0.000000000  0.000000000     0.238549618  0.000000000  0.000000000
     0.000000000  4.192000000  0.000000000     0.000000000  0.238549618  0.000000000
     0.000000000  0.000000000  4.192000000     0.000000000  0.000000000  0.238549618

  length of vectors
     4.192000000  4.192000000  4.192000000     0.238549618  0.238549618  0.238549618

  position of ions in fractional coordinates (direct lattice)
     0.000000000  0.000000000  0.000000000
     0.500000000  0.500000000  0.500000000
     0.500000000  0.500000000  0.000000000
     0.500000000  0.000000000  0.500000000
     0.000000000  0.500000000  0.500000000

  ion indices of the primitive-cell ions
   primitive index   ion index
                 1           1
                 2           2
                 3           3
                 4           4
                 5           5

----------------------------------------------------------------------------------------

 
 
 KPOINTS: BaZrO3 band structure                   

Interpolating k-points between supplied coordinates.

 Line segments in fractional coordinates (reciprocal lattice):
    0.000000  0.000000  0.000000  ...  0.500000  0.000000  0.000000
    0.500000  0.000000  0.000000  ...  0.500000  0.500000  0.000000
    0.500000  0.500000  0.000000  ...  0.000000  0.000000  0.000000
    0.000000  0.000000  0.000000  ...  0.500000  0.500000  0.500000
    0.500000  0.500000  0.500000  ...  0.500000  0.000000  0.000000

 Generated    40 points on each line segment, for a total of    200 k-points:

 Following reciprocal coordinates:
            Coordinates               Weight
  0.000000  0.000000  0.000000      0.005000
  0.012821  0.000000  0.000000      0.005000
  0.025641  0.000000  0.000000      0.005000
  0.038462  0.000000  0.000000      0.005000
  0.051282  0.000000  0.000000      0.005000
  0.064103  0.000000  0.000000      0.005000
  0.076923  0.000000  0.000000      0.005000
  0.089744  0.000000  0.000000      0.005000
  0.102564  0.000000  0.000000      0.005000
  0.115385  0.000000  0.000000      0.005000
  0.128205  0.000000  0.000000      0.005000
  0.141026  0.000000  0.000000      0.005000
  0.153846  0.000000  0.000000      0.005000
  0.166667  0.000000  0.000000      0.005000
  0.179487  0.000000  0.000000      0.005000
  0.192308  0.000000  0.000000      0.005000
  0.205128  0.000000  0.000000      0.005000
  0.217949  0.000000  0.000000      0.005000
  0.230769  0.000000  0.000000      0.005000
  0.243590  0.000000  0.000000      0.005000
  0.256410  0.000000  0.000000      0.005000
  0.269231  0.000000  0.000000      0.005000
  0.282051  0.000000  0.000000      0.005000
  0.294872  0.000000  0.000000      0.005000
  0.307692  0.000000  0.000000      0.005000
  0.320513  0.000000  0.000000      0.005000
  0.333333  0.000000  0.000000      0.005000
  0.346154  0.000000  0.000000      0.005000
  0.358974  0.000000  0.000000      0.005000
  0.371795  0.000000  0.000000      0.005000
  0.384615  0.000000  0.000000      0.005000
  0.397436  0.000000  0.000000      0.005000
  0.410256  0.000000  0.000000      0.005000
  0.423077  0.000000  0.000000      0.005000
  0.435897  0.000000  0.000000      0.005000
  0.448718  0.000000  0.000000      0.005000
  0.461538  0.000000  0.000000      0.005000
  0.474359  0.000000  0.000000      0.005000
  0.487179  0.000000  0.000000      0.005000
  0.500000  0.000000  0.000000      0.005000
  0.500000  0.000000  0.000000      0.005000
  0.500000  0.012821  0.000000      0.005000
  0.500000  0.025641  0.000000      0.005000
  0.500000  0.038462  0.000000      0.005000
  0.500000  0.051282  0.000000      0.005000
  0.500000  0.064103  0.000000      0.005000
  0.500000  0.076923  0.000000      0.005000
  0.500000  0.089744  0.000000      0.005000
  0.500000  0.102564  0.000000      0.005000
  0.500000  0.115385  0.000000      0.005000
  0.500000  0.128205  0.000000      0.005000
  0.500000  0.141026  0.000000      0.005000
  0.500000  0.153846  0.000000      0.005000
  0.500000  0.166667  0.000000      0.005000
  0.500000  0.179487  0.000000      0.005000
  0.500000  0.192308  0.000000      0.005000
  0.500000  0.205128  0.000000      0.005000
  0.500000  0.217949  0.000000      0.005000
  0.500000  0.230769  0.000000      0.005000
  0.500000  0.243590  0.000000      0.005000
  0.500000  0.256410  0.000000      0.005000
  0.500000  0.269231  0.000000      0.005000
  0.500000  0.282051  0.000000      0.005000
  0.500000  0.294872  0.000000      0.005000
  0.500000  0.307692  0.000000      0.005000
  0.500000  0.320513  0.000000      0.005000
  0.500000  0.333333  0.000000      0.005000
  0.500000  0.346154  0.000000      0.005000
  0.500000  0.358974  0.000000      0.005000
  0.500000  0.371795  0.000000      0.005000
  0.500000  0.384615  0.000000      0.005000
  0.500000  0.397436  0.000000      0.005000
  0.500000  0.410256  0.000000      0.005000
  0.500000  0.423077  0.000000      0.005000
  0.500000  0.435897  0.000000      0.005000
  0.500000  0.448718  0.000000      0.005000
  0.500000  0.461538  0.000000      0.005000
  0.500000  0.474359  0.000000      0.005000
  0.500000  0.487179  0.000000      0.005000
  0.500000  0.500000  0.000000      0.005000
  0.500000  0.500000  0.000000      0.005000
  0.487179  0.487179  0.000000      0.005000
  0.474359  0.474359  0.000000      0.005000
  0.461538  0.461538  0.000000      0.005000
  0.448718  0.448718  0.000000      0.005000
  0.435897  0.435897  0.000000      0.005000
  0.423077  0.423077  0.000000      0.005000
  0.410256  0.410256  0.000000      0.005000
  0.397436  0.397436  0.000000      0.005000
  0.384615  0.384615  0.000000      0.005000
  0.371795  0.371795  0.000000      0.005000
  0.358974  0.358974  0.000000      0.005000
  0.346154  0.346154  0.000000      0.005000
  0.333333  0.333333  0.000000      0.005000
  0.320513  0.320513  0.000000      0.005000
  0.307692  0.307692  0.000000      0.005000
  0.294872  0.294872  0.000000      0.005000
  0.282051  0.282051  0.000000      0.005000
  0.269231  0.269231  0.000000      0.005000
  0.256410  0.256410  0.000000      0.005000
  0.243590  0.243590  0.000000      0.005000
  0.230769  0.230769  0.000000      0.005000
  0.217949  0.217949  0.000000      0.005000
  0.205128  0.205128  0.000000      0.005000
  0.192308  0.192308  0.000000      0.005000
  0.179487  0.179487  0.000000      0.005000
  0.166667  0.166667  0.000000      0.005000
  0.153846  0.153846  0.000000      0.005000
  0.141026  0.141026  0.000000      0.005000
  0.128205  0.128205  0.000000      0.005000
  0.115385  0.115385  0.000000      0.005000
  0.102564  0.102564  0.000000      0.005000
  0.089744  0.089744  0.000000      0.005000
  0.076923  0.076923  0.000000      0.005000
  0.064103  0.064103  0.000000      0.005000
  0.051282  0.051282  0.000000      0.005000
  0.038462  0.038462  0.000000      0.005000
  0.025641  0.025641  0.000000      0.005000
  0.012821  0.012821  0.000000      0.005000
  0.000000  0.000000  0.000000      0.005000
  0.000000  0.000000  0.000000      0.005000
  0.012821  0.012821  0.012821      0.005000
  0.025641  0.025641  0.025641      0.005000
  0.038462  0.038462  0.038462      0.005000
  0.051282  0.051282  0.051282      0.005000
  0.064103  0.064103  0.064103      0.005000
  0.076923  0.076923  0.076923      0.005000
  0.089744  0.089744  0.089744      0.005000
  0.102564  0.102564  0.102564      0.005000
  0.115385  0.115385  0.115385      0.005000
  0.128205  0.128205  0.128205      0.005000
  0.141026  0.141026  0.141026      0.005000
  0.153846  0.153846  0.153846      0.005000
  0.166667  0.166667  0.166667      0.005000
  0.179487  0.179487  0.179487      0.005000
  0.192308  0.192308  0.192308      0.005000
  0.205128  0.205128  0.205128      0.005000
  0.217949  0.217949  0.217949      0.005000
  0.230769  0.230769  0.230769      0.005000
  0.243590  0.243590  0.243590      0.005000
  0.256410  0.256410  0.256410      0.005000
  0.269231  0.269231  0.269231      0.005000
  0.282051  0.282051  0.282051      0.005000
  0.294872  0.294872  0.294872      0.005000
  0.307692  0.307692  0.307692      0.005000
  0.320513  0.320513  0.320513      0.005000
  0.333333  0.333333  0.333333      0.005000
  0.346154  0.346154  0.346154      0.005000
  0.358974  0.358974  0.358974      0.005000
  0.371795  0.371795  0.371795      0.005000
  0.384615  0.384615  0.384615      0.005000
  0.397436  0.397436  0.397436      0.005000
  0.410256  0.410256  0.410256      0.005000
  0.423077  0.423077  0.423077      0.005000
  0.435897  0.435897  0.435897      0.005000
  0.448718  0.448718  0.448718      0.005000
  0.461538  0.461538  0.461538      0.005000
  0.474359  0.474359  0.474359      0.005000
  0.487179  0.487179  0.487179      0.005000
  0.500000  0.500000  0.500000      0.005000
  0.500000  0.500000  0.500000      0.005000
  0.500000  0.487179  0.487179      0.005000
  0.500000  0.474359  0.474359      0.005000
  0.500000  0.461538  0.461538      0.005000
  0.500000  0.448718  0.448718      0.005000
  0.500000  0.435897  0.435897      0.005000
  0.500000  0.423077  0.423077      0.005000
  0.500000  0.410256  0.410256      0.005000
  0.500000  0.397436  0.397436      0.005000
  0.500000  0.384615  0.384615      0.005000
  0.500000  0.371795  0.371795      0.005000
  0.500000  0.358974  0.358974      0.005000
  0.500000  0.346154  0.346154      0.005000
  0.500000  0.333333  0.333333      0.005000
  0.500000  0.320513  0.320513      0.005000
  0.500000  0.307692  0.307692      0.005000
  0.500000  0.294872  0.294872      0.005000
  0.500000  0.282051  0.282051      0.005000
  0.500000  0.269231  0.269231      0.005000
  0.500000  0.256410  0.256410      0.005000
  0.500000  0.243590  0.243590      0.005000
  0.500000  0.230769  0.230769      0.005000
  0.500000  0.217949  0.217949      0.005000
  0.500000  0.205128  0.205128      0.005000
  0.500000  0.192308  0.192308      0.005000
  0.500000  0.179487  0.179487      0.005000
  0.500000  0.166667  0.166667      0.005000
  0.500000  0.153846  0.153846      0.005000
  0.500000  0.141026  0.141026      0.005000
  0.500000  0.128205  0.128205      0.005000
  0.500000  0.115385  0.115385      0.005000
  0.500000  0.102564  0.102564      0.005000
  0.500000  0.089744  0.089744      0.005000
  0.500000  0.076923  0.076923      0.005000
  0.500000  0.064103  0.064103      0.005000
  0.500000  0.051282  0.051282      0.005000
  0.500000  0.038462  0.038462      0.005000
  0.500000  0.025641  0.025641      0.005000
  0.500000  0.012821  0.012821      0.005000
  0.500000  0.000000  0.000000      0.005000

 Following cartesian coordinates:
            Coordinates               Weight
  0.000000  0.000000  0.000000      0.005000
  0.003058  0.000000  0.000000      0.005000
  0.006117  0.000000  0.000000      0.005000
  0.009175  0.000000  0.000000      0.005000
  0.012233  0.000000  0.000000      0.005000
  0.015292  0.000000  0.000000      0.005000
  0.018350  0.000000  0.000000      0.005000
  0.021408  0.000000  0.000000      0.005000
  0.024467  0.000000  0.000000      0.005000
  0.027525  0.000000  0.000000      0.005000
  0.030583  0.000000  0.000000      0.005000
  0.033642  0.000000  0.000000      0.005000
  0.036700  0.000000  0.000000      0.005000
  0.039758  0.000000  0.000000      0.005000
  0.042817  0.000000  0.000000      0.005000
  0.045875  0.000000  0.000000      0.005000
  0.048933  0.000000  0.000000      0.005000
  0.051992  0.000000  0.000000      0.005000
  0.055050  0.000000  0.000000      0.005000
  0.058108  0.000000  0.000000      0.005000
  0.061167  0.000000  0.000000      0.005000
  0.064225  0.000000  0.000000      0.005000
  0.067283  0.000000  0.000000      0.005000
  0.070342  0.000000  0.000000      0.005000
  0.073400  0.000000  0.000000      0.005000
  0.076458  0.000000  0.000000      0.005000
  0.079517  0.000000  0.000000      0.005000
  0.082575  0.000000  0.000000      0.005000
  0.085633  0.000000  0.000000      0.005000
  0.088692  0.000000  0.000000      0.005000
  0.091750  0.000000  0.000000      0.005000
  0.094808  0.000000  0.000000      0.005000
  0.097867  0.000000  0.000000      0.005000
  0.100925  0.000000  0.000000      0.005000
  0.103983  0.000000  0.000000      0.005000
  0.107041  0.000000  0.000000      0.005000
  0.110100  0.000000  0.000000      0.005000
  0.113158  0.000000  0.000000      0.005000
  0.116216  0.000000  0.000000      0.005000
  0.119275  0.000000  0.000000      0.005000
  0.119275  0.000000  0.000000      0.005000
  0.119275  0.003058  0.000000      0.005000
  0.119275  0.006117  0.000000      0.005000
  0.119275  0.009175  0.000000      0.005000
  0.119275  0.012233  0.000000      0.005000
  0.119275  0.015292  0.000000      0.005000
  0.119275  0.018350  0.000000      0.005000
  0.119275  0.021408  0.000000      0.005000
  0.119275  0.024467  0.000000      0.005000
  0.119275  0.027525  0.000000      0.005000
  0.119275  0.030583  0.000000      0.005000
  0.119275  0.033642  0.000000      0.005000
  0.119275  0.036700  0.000000      0.005000
  0.119275  0.039758  0.000000      0.005000
  0.119275  0.042817  0.000000      0.005000
  0.119275  0.045875  0.000000      0.005000
  0.119275  0.048933  0.000000      0.005000
  0.119275  0.051992  0.000000      0.005000
  0.119275  0.055050  0.000000      0.005000
  0.119275  0.058108  0.000000      0.005000
  0.119275  0.061167  0.000000      0.005000
  0.119275  0.064225  0.000000      0.005000
  0.119275  0.067283  0.000000      0.005000
  0.119275  0.070342  0.000000      0.005000
  0.119275  0.073400  0.000000      0.005000
  0.119275  0.076458  0.000000      0.005000
  0.119275  0.079517  0.000000      0.005000
  0.119275  0.082575  0.000000      0.005000
  0.119275  0.085633  0.000000      0.005000
  0.119275  0.088692  0.000000      0.005000
  0.119275  0.091750  0.000000      0.005000
  0.119275  0.094808  0.000000      0.005000
  0.119275  0.097867  0.000000      0.005000
  0.119275  0.100925  0.000000      0.005000
  0.119275  0.103983  0.000000      0.005000
  0.119275  0.107041  0.000000      0.005000
  0.119275  0.110100  0.000000      0.005000
  0.119275  0.113158  0.000000      0.005000
  0.119275  0.116216  0.000000      0.005000
  0.119275  0.119275  0.000000      0.005000
  0.119275  0.119275  0.000000      0.005000
  0.116216  0.116216  0.000000      0.005000
  0.113158  0.113158  0.000000      0.005000
  0.110100  0.110100  0.000000      0.005000
  0.107041  0.107041  0.000000      0.005000
  0.103983  0.103983  0.000000      0.005000
  0.100925  0.100925  0.000000      0.005000
  0.097867  0.097867  0.000000      0.005000
  0.094808  0.094808  0.000000      0.005000
  0.091750  0.091750  0.000000      0.005000
  0.088692  0.088692  0.000000      0.005000
  0.085633  0.085633  0.000000      0.005000
  0.082575  0.082575  0.000000      0.005000
  0.079517  0.079517  0.000000      0.005000
  0.076458  0.076458  0.000000      0.005000
  0.073400  0.073400  0.000000      0.005000
  0.070342  0.070342  0.000000      0.005000
  0.067283  0.067283  0.000000      0.005000
  0.064225  0.064225  0.000000      0.005000
  0.061167  0.061167  0.000000      0.005000
  0.058108  0.058108  0.000000      0.005000
  0.055050  0.055050  0.000000      0.005000
  0.051992  0.051992  0.000000      0.005000
  0.048933  0.048933  0.000000      0.005000
  0.045875  0.045875  0.000000      0.005000
  0.042817  0.042817  0.000000      0.005000
  0.039758  0.039758  0.000000      0.005000
  0.036700  0.036700  0.000000      0.005000
  0.033642  0.033642  0.000000      0.005000
  0.030583  0.030583  0.000000      0.005000
  0.027525  0.027525  0.000000      0.005000
  0.024467  0.024467  0.000000      0.005000
  0.021408  0.021408  0.000000      0.005000
  0.018350  0.018350  0.000000      0.005000
  0.015292  0.015292  0.000000      0.005000
  0.012233  0.012233  0.000000      0.005000
  0.009175  0.009175  0.000000      0.005000
  0.006117  0.006117  0.000000      0.005000
  0.003058  0.003058  0.000000      0.005000
  0.000000  0.000000  0.000000      0.005000
  0.000000  0.000000  0.000000      0.005000
  0.003058  0.003058  0.003058      0.005000
  0.006117  0.006117  0.006117      0.005000
  0.009175  0.009175  0.009175      0.005000
  0.012233  0.012233  0.012233      0.005000
  0.015292  0.015292  0.015292      0.005000
  0.018350  0.018350  0.018350      0.005000
  0.021408  0.021408  0.021408      0.005000
  0.024467  0.024467  0.024467      0.005000
  0.027525  0.027525  0.027525      0.005000
  0.030583  0.030583  0.030583      0.005000
  0.033642  0.033642  0.033642      0.005000
  0.036700  0.036700  0.036700      0.005000
  0.039758  0.039758  0.039758      0.005000
  0.042817  0.042817  0.042817      0.005000
  0.045875  0.045875  0.045875      0.005000
  0.048933  0.048933  0.048933      0.005000
  0.051992  0.051992  0.051992      0.005000
  0.055050  0.055050  0.055050      0.005000
  0.058108  0.058108  0.058108      0.005000
  0.061167  0.061167  0.061167      0.005000
  0.064225  0.064225  0.064225      0.005000
  0.067283  0.067283  0.067283      0.005000
  0.070342  0.070342  0.070342      0.005000
  0.073400  0.073400  0.073400      0.005000
  0.076458  0.076458  0.076458      0.005000
  0.079517  0.079517  0.079517      0.005000
  0.082575  0.082575  0.082575      0.005000
  0.085633  0.085633  0.085633      0.005000
  0.088692  0.088692  0.088692      0.005000
  0.091750  0.091750  0.091750      0.005000
  0.094808  0.094808  0.094808      0.005000
  0.097867  0.097867  0.097867      0.005000
  0.100925  0.100925  0.100925      0.005000
  0.103983  0.103983  0.103983      0.005000
  0.107041  0.107041  0.107041      0.005000
  0.110100  0.110100  0.110100      0.005000
  0.113158  0.113158  0.113158      0.005000
  0.116216  0.116216  0.116216      0.005000
  0.119275  0.119275  0.119275      0.005000
  0.119275  0.119275  0.119275      0.005000
  0.119275  0.116216  0.116216      0.005000
  0.119275  0.113158  0.113158      0.005000
  0.119275  0.110100  0.110100      0.005000
  0.119275  0.107041  0.107041      0.005000
  0.119275  0.103983  0.103983      0.005000
  0.119275  0.100925  0.100925      0.005000
  0.119275  0.097867  0.097867      0.005000
  0.119275  0.094808  0.094808      0.005000
  0.119275  0.091750  0.091750      0.005000
  0.119275  0.088692  0.088692      0.005000
  0.119275  0.085633  0.085633      0.005000
  0.119275  0.082575  0.082575      0.005000
  0.119275  0.079517  0.079517      0.005000
  0.119275  0.076458  0.076458      0.005000
  0.119275  0.073400  0.073400      0.005000
  0.119275  0.070342  0.070342      0.005000
  0.119275  0.067283  0.067283      0.005000
  0.119275  0.064225  0.064225      0.005000
  0.119275  0.061167  0.061167      0.005000
  0.119275  0.058108  0.058108      0.005000
  0.119275  0.055050  0.055050      0.005000
  0.119275  0.051992  0.051992      0.005000
  0.119275  0.048933  0.048933      0.005000
  0.119275  0.045875  0.045875      0.005000
  0.119275  0.042817  0.042817      0.005000
  0.119275  0.039758  0.039758      0.005000
  0.119275  0.036700  0.036700      0.005000
  0.119275  0.033642  0.033642      0.005000
  0.119275  0.030583  0.030583      0.005000
  0.119275  0.027525  0.027525      0.005000
  0.119275  0.024467  0.024467      0.005000
  0.119275  0.021408  0.021408      0.005000
  0.119275  0.018350  0.018350      0.005000
  0.119275  0.015292  0.015292      0.005000
  0.119275  0.012233  0.012233      0.005000
  0.119275  0.009175  0.009175      0.005000
  0.119275  0.006117  0.006117      0.005000
  0.119275  0.003058  0.003058      0.005000
  0.119275  0.000000  0.000000      0.005000
 


--------------------------------------------------------------------------------------------------------




 Dimension of arrays:
   k-points           NKPTS =    200   k-points in BZ     NKDIM =    200   number of bands    NBANDS=    160
   number of dos      NEDOS =    301   number of ions     NIONS =      5
   non local maximal  LDIM  =      6   non local SUM 2l+1 LMDIM =     18
   total plane-waves  NPLWV =  46656
   max r-space proj   IRMAX =      1   max aug-charges    IRDMAX=  39840
   dimension x,y,z NGX =    36 NGY =   36 NGZ =   36
   dimension x,y,z NGXF=    72 NGYF=   72 NGZF=   72
   support grid    NGXF=    72 NGYF=   72 NGZF=   72
   ions per type =               1   1   3
   NGX,Y,Z   is equivalent  to a cutoff of  14.28, 14.28, 14.28 a.u.
   NGXF,Y,Z  is equivalent  to a cutoff of  28.55, 28.55, 28.55 a.u.

 SYSTEM =  BaZrO3 Band                             
 POSCAR =  Ba Zr O                                 

 Startparameter for this run:
   NWRITE =      2    write-flag & timer
   PREC   = accura    normal or accurate (medium, high low for compatibility)
   ISTART =      1    job   : 0-new  1-cont  2-samecut
   ICHARG =     11    charge: 1-file 2-atom 10-const
   ISPIN  =      1    spin polarized calculation?
   LNONCOLLINEAR =      F non collinear calculations
   LSORBIT =      F    spin-orbit coupling
   INIWAV =      1    electr: 0-lowe 1-rand  2-diag
   LASPH  =      T    aspherical Exc in radial PAW
 Electronic Relaxation 1
   ENCUT  =  600.0 eV  44.10 Ry    6.64 a.u.   8.37  8.37  8.37*2*pi/ulx,y,z
   ENINI  =  600.0     initial cutoff
   ENAUG  =  605.4 eV  augmentation charge cutoff
   NELM   =     60;   NELMIN=  2; NELMDL=  0     # of ELM steps 
   EDIFF  = 0.1E-07   stopping-criterion for ELM
   LREAL  =      F    real-space projection
   NLSPLINE    = F    spline interpolate recip. space projectors
   LCOMPAT=      F    compatible to vasp.4.4
   GGA_COMPAT  = T    GGA compatible to vasp.4.4-vasp.4.6
   LMAXPAW     = -100 max onsite density
   LMAXMIX     =    2 max onsite mixed and CHGCAR
   VOSKOWN=      0    Vosko Wilk Nusair interpolation
   ROPT   =    0.00000   0.00000   0.00000
 Ionic relaxation
   EDIFFG = 0.1E-06   stopping-criterion for IOM
   NSW    =      0    number of steps for IOM
   NBLOCK =      1;   KBLOCK =      1    inner block; outer block 
   IBRION =     -1    ionic relax: 0-MD 1-quasi-New 2-CG
   NFREE  =      0    steps in history (QN), initial steepest desc. (CG)
   ISIF   =      2    stress and relaxation
   IWAVPR =     10    prediction:  0-non 1-charg 2-wave 3-comb
   ISYM   =      2    0-nonsym 1-usesym 2-fastsym
   LCORR  =      T    Harris-Foulkes like correction to forces

   POTIM  = 0.5000    time-step for ionic-motion
   TEIN   =    0.0    initial temperature
   TEBEG  =    0.0;   TEEND  =   0.0 temperature during run
   SMASS  =  -3.00    Nose mass-parameter (am)
   estimated Nose-frequenzy (Omega)   =  0.10E-29 period in steps = 0.13E+47 mass=  -0.402E-27a.u.
   SCALEE = 1.0000    scale energy and forces
   NPACO  =    256;   APACO  = 10.0  distance and # of slots for P.C.
   PSTRESS=    0.0 pullay stress

  Mass of Ions in am
   POMASS = 137.33 91.22 16.00
  Ionic Valenz
   ZVAL   =  10.00 12.00  6.00
  Atomic Wigner-Seitz radii
   RWIGS  =  -1.00 -1.00 -1.00
  virtual crystal weights 
   VCA    =   1.00  1.00  1.00
   NELECT =      40.0000    total number of electrons
   NUPDOWN=      -1.0000    fix difference up-down

 DOS related values:
   EMIN   =  10.00;   EMAX   =-10.00  energy-range for DOS
   EFERMI =   0.00;   METHOD = LEGACY      
   ISMEAR =     0;   SIGMA  =   0.05  broadening in eV -4-tet -1-fermi 0-gaus

 Electronic relaxation 2 (details)
   IALGO  =     38    algorithm
   LDIAG  =      T    sub-space diagonalisation (order eigenvalues)
   LSUBROT=      F    optimize rotation matrix (better conditioning)
   TURBO    =      0    0=normal 1=particle mesh
   IRESTART =      0    0=no restart 2=restart with 2 vectors
   NREBOOT  =      0    no. of reboots
   NMIN     =      0    reboot dimension
   EREF     =   0.00    reference energy to select bands
   IMIX   =      4    mixing-type and parameters
     AMIX     =   0.40;   BMIX     =  1.00
     AMIX_MAG =   1.60;   BMIX_MAG =  1.00
     AMIN     =   0.10
     WC   =   100.;   INIMIX=   1;  MIXPRE=   1;  MAXMIX= -45

 Intra band minimization:
   WEIMIN = 0.0000     energy-eigenvalue tresh-hold
   EBREAK =  0.16E-10  absolut break condition
   DEPER  =   0.30     relativ break condition  

   TIME   =   0.40     timestep for ELM

  volume/ion in A,a.u.               =      14.73        99.42
  Fermi-wavevector in a.u.,A,eV,Ry     =   1.335591  2.523901 24.270125  1.783804
  Thomas-Fermi vector in A             =   2.464284
 
 Write flags
   LWAVE        =      F    write WAVECAR
   LDOWNSAMPLE  =      F    k-point downsampling of WAVECAR
   LCHARG       =      F    write CHGCAR
   LVTOT        =      F    write LOCPOT, total local potential
   LVHAR        =      F    write LOCPOT, Hartree potential only
   WRT_POTENTIAL= false  ! write potential to hdf5 file
   LELF         =      F    write electronic localiz. function (ELF)
   LORBIT       =     11    0 simple, 1 ext, 2 COOP (PROOUT), +10 PAW based schemes


 Dipole corrections
   LMONO      =      F    monopole corrections only (constant potential shift)
   LDIPOL     =      F    correct potential (dipole corrections)
   IDIPOL     =      0    1-x, 2-y, 3-z, 4-all directions 
   EPSILON    =  1.0000000 bulk dielectric constant
   LVACPOTAV  =      F  vacuum potentials using an averaging scheme for the charge density
   VACPOTFLAT =  0.1000000 required flatness to determine vacuum potential
 Exchange correlation treatment:
   GGA     = PE    functional components
   XC_C    = 1    coefficients multiplying the functional components
   LIBXC   =     F    Libxc                    
   VOSKOWN =     0    Vosko Wilk Nusair interpolation
   LHFCALC =     F    Hartree Fock is set to
   LHFONE  =     F    Hartree Fock one center treatment
   AEXX    =    0.0000 exact exchange contribution

 Parameters of functionals:
   PE:
     No parameter
 
 Van der Waals corrections
   IVDW    =     0    specifies the selected vdW correction

 Linear response parameters
   LEPSILON=     F    determine dielectric tensor
   LRPA    =     F    only Hartree local field effects (RPA)
   LNABLA  =     F    use nabla operator in PAW spheres
   LVEL    =     F    velocity operator in full k-point grid
   CSHIFT  =0.1000    complex shift for real part using Kramers Kronig
   OMEGAMAX=  -1.0    maximum frequency
   DEG_THRESHOLD= 0.2000000E-02 threshold for treating states as degnerate
   RTIME   =   -0.100 relaxation time in fs
  (WPLASMAI=    0.000 imaginary part of plasma frequency in eV, 0.658/RTIME)
   DFIELD  = 0.0000000 0.0000000 0.0000000 field for delta impulse in time
 
  Optional k-point grid parameters
   LKPOINTS_OPT  =     F    use optional k-point grid
   KPOINTS_OPT_MODE=     1    mode for optional k-point grid
 
 Orbital magnetization related:
   ORBITALMAG=     F  switch on orbital magnetization
   LCHIMAG   =     F  perturbation theory with respect to B field
   DQ        =  0.001000  dq finite difference perturbation B field
   LLRAUG    =     F  two centre corrections for induced B field
   LBONE     =     F  B-component reconstruction in AE one-centre
   LVGVCALC  =     T  calculate vGv susceptibility
   LVGVAPPL  =     F  apply vGv susceptibility instead of pGv for G=0

 Random number generation:
   RANDOM_GENERATOR = DEFAULT
   PCG_SEED         = not used


--------------------------------------------------------------------------------------------------------


 Static calculation
 charge density and potential remain constant during run
 non-spin polarized calculation
 Variant of blocked Davidson
 Davidson routine will perform the subspace rotation
 perform sub-space diagonalisation
    after iterative eigenvector-optimisation
 no mixing
 using additional bands          140
 reciprocal scheme for non local part
 use partial core corrections
 calculate Harris-corrections to forces 
   (improved forces if not selfconsistent)
 use gradient corrections 
 WARNING: stress and forces are not correct
  (second derivative of E(xc) not defined)
 use of overlap-Matrix (Vanderbilt PP)
 Gauss-broadening in eV      SIGMA  =   0.05


--------------------------------------------------------------------------------------------------------


  energy-cutoff  :      600.00
  volume of cell :       73.67
      direct lattice vectors                 reciprocal lattice vectors
     4.192000000  0.000000000  0.000000000     0.238549618  0.000000000  0.000000000
     0.000000000  4.192000000  0.000000000     0.000000000  0.238549618  0.000000000
     0.000000000  0.000000000  4.192000000     0.000000000  0.000000000  0.238549618

  length of vectors
     4.192000000  4.192000000  4.192000000     0.238549618  0.238549618  0.238549618


 
 old parameters found on file WAVECAR:
  energy-cutoff  :      600.00
  volume of cell :       73.67
      direct lattice vectors                 reciprocal lattice vectors
     4.192000000  0.000000000  0.000000000     0.238549618  0.000000000  0.000000000
     0.000000000  4.192000000  0.000000000     0.000000000  0.238549618  0.000000000
     0.000000000  0.000000000  4.192000000     0.000000000  0.000000000  0.238549618

  length of vectors

 
 k-points in units of 2pi/SCALE and weight: BaZrO3 band structure                   
   0.00000000  0.00000000  0.00000000       0.005
   0.00305833  0.00000000  0.00000000       0.005
   0.00611666  0.00000000  0.00000000       0.005
   0.00917499  0.00000000  0.00000000       0.005
   0.01223331  0.00000000  0.00000000       0.005
   0.01529164  0.00000000  0.00000000       0.005
   0.01834997  0.00000000  0.00000000       0.005
   0.02140830  0.00000000  0.00000000       0.005
   0.02446663  0.00000000  0.00000000       0.005
   0.02752496  0.00000000  0.00000000       0.005
   0.03058328  0.00000000  0.00000000       0.005
   0.03364161  0.00000000  0.00000000       0.005
   0.03669994  0.00000000  0.00000000       0.005
   0.03975827  0.00000000  0.00000000       0.005
   0.04281660  0.00000000  0.00000000       0.005
   0.04587493  0.00000000  0.00000000       0.005
   0.04893326  0.00000000  0.00000000       0.005
   0.05199158  0.00000000  0.00000000       0.005
   0.05504991  0.00000000  0.00000000       0.005
   0.05810824  0.00000000  0.00000000       0.005
   0.06116657  0.00000000  0.00000000       0.005
   0.06422490  0.00000000  0.00000000       0.005
   0.06728323  0.00000000  0.00000000       0.005
   0.07034155  0.00000000  0.00000000       0.005
   0.07339988  0.00000000  0.00000000       0.005
   0.07645821  0.00000000  0.00000000       0.005
   0.07951654  0.00000000  0.00000000       0.005
   0.08257487  0.00000000  0.00000000       0.005
   0.08563320  0.00000000  0.00000000       0.005
   0.08869152  0.00000000  0.00000000       0.005
   0.09174985  0.00000000  0.00000000       0.005
   0.09480818  0.00000000  0.00000000       0.005
   0.09786651  0.00000000  0.00000000       0.005
   0.10092484  0.00000000  0.00000000       0.005
   0.10398317  0.00000000  0.00000000       0.005
   0.10704150  0.00000000  0.00000000       0.005
   0.11009982  0.00000000  0.00000000       0.005
   0.11315815  0.00000000  0.00000000       0.005
   0.11621648  0.00000000  0.00000000       0.005
   0.11927481  0.00000000  0.00000000       0.005
   0.11927481  0.00000000  0.00000000       0.005
   0.11927481  0.00305833  0.00000000       0.005
   0.11927481  0.00611666  0.00000000       0.005
   0.11927481  0.00917499  0.00000000       0.005
   0.11927481  0.01223331  0.00000000       0.005
   0.11927481  0.01529164  0.00000000       0.005
   0.11927481  0.01834997  0.00000000       0.005
   0.11927481  0.02140830  0.00000000       0.005
   0.11927481  0.02446663  0.00000000       0.005
   0.11927481  0.02752496  0.00000000       0.005
   0.11927481  0.03058328  0.00000000       0.005
   0.11927481  0.03364161  0.00000000       0.005
   0.11927481  0.03669994  0.00000000       0.005
   0.11927481  0.03975827  0.00000000       0.005
   0.11927481  0.04281660  0.00000000       0.005
   0.11927481  0.04587493  0.00000000       0.005
   0.11927481  0.04893326  0.00000000       0.005
   0.11927481  0.05199158  0.00000000       0.005
   0.11927481  0.05504991  0.00000000       0.005
   0.11927481  0.05810824  0.00000000       0.005
   0.11927481  0.06116657  0.00000000       0.005
   0.11927481  0.06422490  0.00000000       0.005
   0.11927481  0.06728323  0.00000000       0.005
   0.11927481  0.07034155  0.00000000       0.005
   0.11927481  0.07339988  0.00000000       0.005
   0.11927481  0.07645821  0.00000000       0.005
   0.11927481  0.07951654  0.00000000       0.005
   0.11927481  0.08257487  0.00000000       0.005
   0.11927481  0.08563320  0.00000000       0.005
   0.11927481  0.08869152  0.00000000       0.005
   0.11927481  0.09174985  0.00000000       0.005
   0.11927481  0.09480818  0.00000000       0.005
   0.11927481  0.09786651  0.00000000       0.005
   0.11927481  0.10092484  0.00000000       0.005
   0.11927481  0.10398317  0.00000000       0.005
   0.11927481  0.10704150  0.00000000       0.005
   0.11927481  0.11009982  0.00000000       0.005
   0.11927481  0.11315815  0.00000000       0.005
   0.11927481  0.11621648  0.00000000       0.005
   0.11927481  0.11927481  0.00000000       0.005
   0.11927481  0.11927481  0.00000000       0.005
   0.11621648  0.11621648  0.00000000       0.005
   0.11315815  0.11315815  0.00000000       0.005
   0.11009982  0.11009982  0.00000000       0.005
   0.10704150  0.10704150  0.00000000       0.005
   0.10398317  0.10398317  0.00000000       0.005
   0.10092484  0.10092484  0.00000000       0.005
   0.09786651  0.09786651  0.00000000       0.005
   0.09480818  0.09480818  0.00000000       0.005
   0.09174985  0.09174985  0.00000000       0.005
   0.08869152  0.08869152  0.00000000       0.005
   0.08563320  0.08563320  0.00000000       0.005
   0.08257487  0.08257487  0.00000000       0.005
   0.07951654  0.07951654  0.00000000       0.005
   0.07645821  0.07645821  0.00000000       0.005
   0.07339988  0.07339988  0.00000000       0.005
   0.07034155  0.07034155  0.00000000       0.005
   0.06728323  0.06728323  0.00000000       0.005
   0.06422490  0.06422490  0.00000000       0.005
   0.06116657  0.06116657  0.00000000       0.005
   0.05810824  0.05810824  0.00000000       0.005
   0.05504991  0.05504991  0.00000000       0.005
   0.05199158  0.05199158  0.00000000       0.005
   0.04893326  0.04893326  0.00000000       0.005
   0.04587493  0.04587493  0.00000000       0.005
   0.04281660  0.04281660  0.00000000       0.005
   0.03975827  0.03975827  0.00000000       0.005
   0.03669994  0.03669994  0.00000000       0.005
   0.03364161  0.03364161  0.00000000       0.005
   0.03058328  0.03058328  0.00000000       0.005
   0.02752496  0.02752496  0.00000000       0.005
   0.02446663  0.02446663  0.00000000       0.005
   0.02140830  0.02140830  0.00000000       0.005
   0.01834997  0.01834997  0.00000000       0.005
   0.01529164  0.01529164  0.00000000       0.005
   0.01223331  0.01223331  0.00000000       0.005
   0.00917499  0.00917499  0.00000000       0.005
   0.00611666  0.00611666  0.00000000       0.005
   0.00305833  0.00305833  0.00000000       0.005
   0.00000000  0.00000000  0.00000000       0.005
   0.00000000  0.00000000  0.00000000       0.005
   0.00305833  0.00305833  0.00305833       0.005
   0.00611666  0.00611666  0.00611666       0.005
   0.00917499  0.00917499  0.00917499       0.005
   0.01223331  0.01223331  0.01223331       0.005
   0.01529164  0.01529164  0.01529164       0.005
   0.01834997  0.01834997  0.01834997       0.005
   0.02140830  0.02140830  0.02140830       0.005
   0.02446663  0.02446663  0.02446663       0.005
   0.02752496  0.02752496  0.02752496       0.005
   0.03058328  0.03058328  0.03058328       0.005
   0.03364161  0.03364161  0.03364161       0.005
   0.03669994  0.03669994  0.03669994       0.005
   0.03975827  0.03975827  0.03975827       0.005
   0.04281660  0.04281660  0.04281660       0.005
   0.04587493  0.04587493  0.04587493       0.005
   0.04893326  0.04893326  0.04893326       0.005
   0.05199158  0.05199158  0.05199158       0.005
   0.05504991  0.05504991  0.05504991       0.005
   0.05810824  0.05810824  0.05810824       0.005
   0.06116657  0.06116657  0.06116657       0.005
   0.06422490  0.06422490  0.06422490       0.005
   0.06728323  0.06728323  0.06728323       0.005
   0.07034155  0.07034155  0.07034155       0.005
   0.07339988  0.07339988  0.07339988       0.005
   0.07645821  0.07645821  0.07645821       0.005
   0.07951654  0.07951654  0.07951654       0.005
   0.08257487  0.08257487  0.08257487       0.005
   0.08563320  0.08563320  0.08563320       0.005
   0.08869152  0.08869152  0.08869152       0.005
   0.09174985  0.09174985  0.09174985       0.005
   0.09480818  0.09480818  0.09480818       0.005
   0.09786651  0.09786651  0.09786651       0.005
   0.10092484  0.10092484  0.10092484       0.005
   0.10398317  0.10398317  0.10398317       0.005
   0.10704150  0.10704150  0.10704150       0.005
   0.11009982  0.11009982  0.11009982       0.005
   0.11315815  0.11315815  0.11315815       0.005
   0.11621648  0.11621648  0.11621648       0.005
   0.11927481  0.11927481  0.11927481       0.005
   0.11927481  0.11927481  0.11927481       0.005
   0.11927481  0.11621648  0.11621648       0.005
   0.11927481  0.11315815  0.11315815       0.005
   0.11927481  0.11009982  0.11009982       0.005
   0.11927481  0.10704150  0.10704150       0.005
   0.11927481  0.10398317  0.10398317       0.005
   0.11927481  0.10092484  0.10092484       0.005
   0.11927481  0.09786651  0.09786651       0.005
   0.11927481  0.09480818  0.09480818       0.005
   0.11927481  0.09174985  0.09174985       0.005
   0.11927481  0.08869152  0.08869152       0.005
   0.11927481  0.08563320  0.08563320       0.005
   0.11927481  0.08257487  0.08257487       0.005
   0.11927481  0.07951654  0.07951654       0.005
   0.11927481  0.07645821  0.07645821       0.005
   0.11927481  0.07339988  0.07339988       0.005
   0.11927481  0.07034155  0.07034155       0.005
   0.11927481  0.06728323  0.06728323       0.005
   0.11927481  0.06422490  0.06422490       0.005
   0.11927481  0.06116657  0.06116657       0.005
   0.11927481  0.05810824  0.05810824       0.005
   0.11927481  0.05504991  0.05504991       0.005
   0.11927481  0.05199158  0.05199158       0.005
   0.11927481  0.04893326  0.04893326       0.005
   0.11927481  0.04587493  0.04587493       0.005
   0.11927481  0.04281660  0.04281660       0.005
   0.11927481  0.03975827  0.03975827       0.005
   0.11927481  0.03669994  0.03669994       0.005
   0.11927481  0.03364161  0.03364161       0.005
   0.11927481  0.03058328  0.03058328       0.005
   0.11927481  0.02752496  0.02752496       0.005
   0.11927481  0.02446663  0.02446663       0.005
   0.11927481  0.02140830  0.02140830       0.005
   0.11927481  0.01834997  0.01834997       0.005
   0.11927481  0.01529164  0.01529164       0.005
   0.11927481  0.01223331  0.01223331       0.005
   0.11927481  0.00917499  0.00917499       0.005
   0.11927481  0.00611666  0.00611666       0.005
   0.11927481  0.00305833  0.00305833       0.005
   0.11927481  0.00000000  0.00000000       0.005
 
 k-points in reciprocal lattice and weights: BaZrO3 band structure                   
   0.00000000  0.00000000  0.00000000       0.005
   0.01282051  0.00000000  0.00000000       0.005
   0.02564103  0.00000000  0.00000000       0.005
   0.03846154  0.00000000  0.00000000       0.005
   0.05128205  0.00000000  0.00000000       0.005
   0.06410256  0.00000000  0.00000000       0.005
   0.07692308  0.00000000  0.00000000       0.005
   0.08974359  0.00000000  0.00000000       0.005
   0.10256410  0.00000000  0.00000000       0.005
   0.11538462  0.00000000  0.00000000       0.005
   0.12820513  0.00000000  0.00000000       0.005
   0.14102564  0.00000000  0.00000000       0.005
   0.15384615  0.00000000  0.00000000       0.005
   0.16666667  0.00000000  0.00000000       0.005
   0.17948718  0.00000000  0.00000000       0.005
   0.19230769  0.00000000  0.00000000       0.005
   0.20512821  0.00000000  0.00000000       0.005
   0.21794872  0.00000000  0.00000000       0.005
   0.23076923  0.00000000  0.00000000       0.005
   0.24358974  0.00000000  0.00000000       0.005
   0.25641026  0.00000000  0.00000000       0.005
   0.26923077  0.00000000  0.00000000       0.005
   0.28205128  0.00000000  0.00000000       0.005
   0.29487179  0.00000000  0.00000000       0.005
   0.30769231  0.00000000  0.00000000       0.005
   0.32051282  0.00000000  0.00000000       0.005
   0.33333333  0.00000000  0.00000000       0.005
   0.34615385  0.00000000  0.00000000       0.005
   0.35897436  0.00000000  0.00000000       0.005
   0.37179487  0.00000000  0.00000000       0.005
   0.38461538  0.00000000  0.00000000       0.005
   0.39743590  0.00000000  0.00000000       0.005
   0.41025641  0.00000000  0.00000000       0.005
   0.42307692  0.00000000  0.00000000       0.005
   0.43589744  0.00000000  0.00000000       0.005
   0.44871795  0.00000000  0.00000000       0.005
   0.46153846  0.00000000  0.00000000       0.005
   0.47435897  0.00000000  0.00000000       0.005
   0.48717949  0.00000000  0.00000000       0.005
   0.50000000  0.00000000  0.00000000       0.005
   0.50000000  0.00000000  0.00000000       0.005
   0.50000000  0.01282051  0.00000000       0.005
   0.50000000  0.02564103  0.00000000       0.005
   0.50000000  0.03846154  0.00000000       0.005
   0.50000000  0.05128205  0.00000000       0.005
   0.50000000  0.06410256  0.00000000       0.005
   0.50000000  0.07692308  0.00000000       0.005
   0.50000000  0.08974359  0.00000000       0.005
   0.50000000  0.10256410  0.00000000       0.005
   0.50000000  0.11538462  0.00000000       0.005
   0.50000000  0.12820513  0.00000000       0.005
   0.50000000  0.14102564  0.00000000       0.005
   0.50000000  0.15384615  0.00000000       0.005
   0.50000000  0.16666667  0.00000000       0.005
   0.50000000  0.17948718  0.00000000       0.005
   0.50000000  0.19230769  0.00000000       0.005
   0.50000000  0.20512821  0.00000000       0.005
   0.50000000  0.21794872  0.00000000       0.005
   0.50000000  0.23076923  0.00000000       0.005
   0.50000000  0.24358974  0.00000000       0.005
   0.50000000  0.25641026  0.00000000       0.005
   0.50000000  0.26923077  0.00000000       0.005
   0.50000000  0.28205128  0.00000000       0.005
   0.50000000  0.29487179  0.00000000       0.005
   0.50000000  0.30769231  0.00000000       0.005
   0.50000000  0.32051282  0.00000000       0.005
   0.50000000  0.33333333  0.00000000       0.005
   0.50000000  0.34615385  0.00000000       0.005
   0.50000000  0.35897436  0.00000000       0.005
   0.50000000  0.37179487  0.00000000       0.005
   0.50000000  0.38461538  0.00000000       0.005
   0.50000000  0.39743590  0.00000000       0.005
   0.50000000  0.41025641  0.00000000       0.005
   0.50000000  0.42307692  0.00000000       0.005
   0.50000000  0.43589744  0.00000000       0.005
   0.50000000  0.44871795  0.00000000       0.005
   0.50000000  0.46153846  0.00000000       0.005
   0.50000000  0.47435897  0.00000000       0.005
   0.50000000  0.48717949  0.00000000       0.005
   0.50000000  0.50000000  0.00000000       0.005
   0.50000000  0.50000000  0.00000000       0.005
   0.48717949  0.48717949  0.00000000       0.005
   0.47435897  0.47435897  0.00000000       0.005
   0.46153846  0.46153846  0.00000000       0.005
   0.44871795  0.44871795  0.00000000       0.005
   0.43589744  0.43589744  0.00000000       0.005
   0.42307692  0.42307692  0.00000000       0.005
   0.41025641  0.41025641  0.00000000       0.005
   0.39743590  0.39743590  0.00000000       0.005
   0.38461538  0.38461538  0.00000000       0.005
   0.37179487  0.37179487  0.00000000       0.005
   0.35897436  0.35897436  0.00000000       0.005
   0.34615385  0.34615385  0.00000000       0.005
   0.33333333  0.33333333  0.00000000       0.005
   0.32051282  0.32051282  0.00000000       0.005
   0.30769231  0.30769231  0.00000000       0.005
   0.29487179  0.29487179  0.00000000       0.005
   0.28205128  0.28205128  0.00000000       0.005
   0.26923077  0.26923077  0.00000000       0.005
   0.25641026  0.25641026  0.00000000       0.005
   0.24358974  0.24358974  0.00000000       0.005
   0.23076923  0.23076923  0.00000000       0.005
   0.21794872  0.21794872  0.00000000       0.005
   0.20512821  0.20512821  0.00000000       0.005
   0.19230769  0.19230769  0.00000000       0.005
   0.17948718  0.17948718  0.00000000       0.005
   0.16666667  0.16666667  0.00000000       0.005
   0.15384615  0.15384615  0.00000000       0.005
   0.14102564  0.14102564  0.00000000       0.005
   0.12820513  0.12820513  0.00000000       0.005
   0.11538462  0.11538462  0.00000000       0.005
   0.10256410  0.10256410  0.00000000       0.005
   0.08974359  0.08974359  0.00000000       0.005
   0.07692308  0.07692308  0.00000000       0.005
   0.06410256  0.06410256  0.00000000       0.005
   0.05128205  0.05128205  0.00000000       0.005
   0.03846154  0.03846154  0.00000000       0.005
   0.02564103  0.02564103  0.00000000       0.005
   0.01282051  0.01282051  0.00000000       0.005
   0.00000000  0.00000000  0.00000000       0.005
   0.00000000  0.00000000  0.00000000       0.005
   0.01282051  0.01282051  0.01282051       0.005
   0.02564103  0.02564103  0.02564103       0.005
   0.03846154  0.03846154  0.03846154       0.005
   0.05128205  0.05128205  0.05128205       0.005
   0.06410256  0.06410256  0.06410256       0.005
   0.07692308  0.07692308  0.07692308       0.005
   0.08974359  0.08974359  0.08974359       0.005
   0.10256410  0.10256410  0.10256410       0.005
   0.11538462  0.11538462  0.11538462       0.005
   0.12820513  0.12820513  0.12820513       0.005
   0.14102564  0.14102564  0.14102564       0.005
   0.15384615  0.15384615  0.15384615       0.005
   0.16666667  0.16666667  0.16666667       0.005
   0.17948718  0.17948718  0.17948718       0.005
   0.19230769  0.19230769  0.19230769       0.005
   0.20512821  0.20512821  0.20512821       0.005
   0.21794872  0.21794872  0.21794872       0.005
   0.23076923  0.23076923  0.23076923       0.005
   0.24358974  0.24358974  0.24358974       0.005
   0.25641026  0.25641026  0.25641026       0.005
   0.26923077  0.26923077  0.26923077       0.005
   0.28205128  0.28205128  0.28205128       0.005
   0.29487179  0.29487179  0.29487179       0.005
   0.30769231  0.30769231  0.30769231       0.005
   0.32051282  0.32051282  0.32051282       0.005
   0.33333333  0.33333333  0.33333333       0.005
   0.34615385  0.34615385  0.34615385       0.005
   0.35897436  0.35897436  0.35897436       0.005
   0.37179487  0.37179487  0.37179487       0.005
   0.38461538  0.38461538  0.38461538       0.005
   0.39743590  0.39743590  0.39743590       0.005
   0.41025641  0.41025641  0.41025641       0.005
   0.42307692  0.42307692  0.42307692       0.005
   0.43589744  0.43589744  0.43589744       0.005
   0.44871795  0.44871795  0.44871795       0.005
   0.46153846  0.46153846  0.46153846       0.005
   0.47435897  0.47435897  0.47435897       0.005
   0.48717949  0.48717949  0.48717949       0.005
   0.50000000  0.50000000  0.50000000       0.005
   0.50000000  0.50000000  0.50000000       0.005
   0.50000000  0.48717949  0.48717949       0.005
   0.50000000  0.47435897  0.47435897       0.005
   0.50000000  0.46153846  0.46153846       0.005
   0.50000000  0.44871795  0.44871795       0.005
   0.50000000  0.43589744  0.43589744       0.005
   0.50000000  0.42307692  0.42307692       0.005
   0.50000000  0.41025641  0.41025641       0.005
   0.50000000  0.39743590  0.39743590       0.005
   0.50000000  0.38461538  0.38461538       0.005
   0.50000000  0.37179487  0.37179487       0.005
   0.50000000  0.35897436  0.35897436       0.005
   0.50000000  0.34615385  0.34615385       0.005
   0.50000000  0.33333333  0.33333333       0.005
   0.50000000  0.32051282  0.32051282       0.005
   0.50000000  0.30769231  0.30769231       0.005
   0.50000000  0.29487179  0.29487179       0.005
   0.50000000  0.28205128  0.28205128       0.005
   0.50000000  0.26923077  0.26923077       0.005
   0.50000000  0.25641026  0.25641026       0.005
   0.50000000  0.24358974  0.24358974       0.005
   0.50000000  0.23076923  0.23076923       0.005
   0.50000000  0.21794872  0.21794872       0.005
   0.50000000  0.20512821  0.20512821       0.005
   0.50000000  0.19230769  0.19230769       0.005
   0.50000000  0.17948718  0.17948718       0.005
   0.50000000  0.16666667  0.16666667       0.005
   0.50000000  0.15384615  0.15384615       0.005
   0.50000000  0.14102564  0.14102564       0.005
   0.50000000  0.12820513  0.12820513       0.005
   0.50000000  0.11538462  0.11538462       0.005
   0.50000000  0.10256410  0.10256410       0.005
   0.50000000  0.08974359  0.08974359       0.005
   0.50000000  0.07692308  0.07692308       0.005
   0.50000000  0.06410256  0.06410256       0.005
   0.50000000  0.05128205  0.05128205       0.005
   0.50000000  0.03846154  0.03846154       0.005
   0.50000000  0.02564103  0.02564103       0.005
   0.50000000  0.01282051  0.01282051       0.005
   0.50000000  0.00000000  0.00000000       0.005
 
 position of ions in fractional coordinates (direct lattice) 
   0.00000000  0.00000000  0.00000000
   0.50000000  0.50000000  0.50000000
   0.50000000  0.50000000  0.00000000
   0.50000000  0.00000000  0.50000000
   0.00000000  0.50000000  0.50000000
 
 position of ions in cartesian coordinates  (Angst):
   0.00000000  0.00000000  0.00000000
   2.09600000  2.09600000  2.09600000
   2.09600000  2.09600000  0.00000000
   2.09600000  0.00000000  2.09600000
   0.00000000  2.09600000  2.09600000
 


--------------------------------------------------------------------------------------------------------


 k-point     1 :   0.0000 0.0000 0.0000  plane waves:    2517
 k-point     2 :   0.0128 0.0000 0.0000  plane waves:    2501
 k-point     3 :   0.0256 0.0000 0.0000  plane waves:    2493
 k-point     4 :   0.0385 0.0000 0.0000  plane waves:    2493
 k-point     5 :   0.0513 0.0000 0.0000  plane waves:    2493
 k-point     6 :   0.0641 0.0000 0.0000  plane waves:    2493
 k-point     7 :   0.0769 0.0000 0.0000  plane waves:    2485
 k-point     8 :   0.0897 0.0000 0.0000  plane waves:    2477
 k-point     9 :   0.1026 0.0000 0.0000  plane waves:    2477
 k-point    10 :   0.1154 0.0000 0.0000  plane waves:    2477
 k-point    11 :   0.1282 0.0000 0.0000  plane waves:    2481
 k-point    12 :   0.1410 0.0000 0.0000  plane waves:    2469
 k-point    13 :   0.1538 0.0000 0.0000  plane waves:    2469
 k-point    14 :   0.1667 0.0000 0.0000  plane waves:    2473
 k-point    15 :   0.1795 0.0000 0.0000  plane waves:    2469
 k-point    16 :   0.1923 0.0000 0.0000  plane waves:    2473
 k-point    17 :   0.2051 0.0000 0.0000  plane waves:    2473
 k-point    18 :   0.2179 0.0000 0.0000  plane waves:    2469
 k-point    19 :   0.2308 0.0000 0.0000  plane waves:    2469
 k-point    20 :   0.2436 0.0000 0.0000  plane waves:    2469
 k-point    21 :   0.2564 0.0000 0.0000  plane waves:    2473
 k-point    22 :   0.2692 0.0000 0.0000  plane waves:    2457
 k-point    23 :   0.2821 0.0000 0.0000  plane waves:    2457
 k-point    24 :   0.2949 0.0000 0.0000  plane waves:    2461
 k-point    25 :   0.3077 0.0000 0.0000  plane waves:    2461
 k-point    26 :   0.3205 0.0000 0.0000  plane waves:    2457
 k-point    27 :   0.3333 0.0000 0.0000  plane waves:    2457
 k-point    28 :   0.3462 0.0000 0.0000  plane waves:    2457
 k-point    29 :   0.3590 0.0000 0.0000  plane waves:    2453
 k-point    30 :   0.3718 0.0000 0.0000  plane waves:    2461
 k-point    31 :   0.3846 0.0000 0.0000  plane waves:    2460
 k-point    32 :   0.3974 0.0000 0.0000  plane waves:    2452
 k-point    33 :   0.4103 0.0000 0.0000  plane waves:    2456
 k-point    34 :   0.4231 0.0000 0.0000  plane waves:    2448
 k-point    35 :   0.4359 0.0000 0.0000  plane waves:    2448
 k-point    36 :   0.4487 0.0000 0.0000  plane waves:    2448
 k-point    37 :   0.4615 0.0000 0.0000  plane waves:    2448
 k-point    38 :   0.4744 0.0000 0.0000  plane waves:    2444
 k-point    39 :   0.4872 0.0000 0.0000  plane waves:    2416
 k-point    40 :   0.5000 0.0000 0.0000  plane waves:    2416
 k-point    41 :   0.5000 0.0000 0.0000  plane waves:    2416
 k-point    42 :   0.5000 0.0128 0.0000  plane waves:    2434
 k-point    43 :   0.5000 0.0256 0.0000  plane waves:    2442
 k-point    44 :   0.5000 0.0385 0.0000  plane waves:    2450
 k-point    45 :   0.5000 0.0513 0.0000  plane waves:    2450
 k-point    46 :   0.5000 0.0641 0.0000  plane waves:    2448
 k-point    47 :   0.5000 0.0769 0.0000  plane waves:    2452
 k-point    48 :   0.5000 0.0897 0.0000  plane waves:    2460
 k-point    49 :   0.5000 0.1026 0.0000  plane waves:    2460
 k-point    50 :   0.5000 0.1154 0.0000  plane waves:    2456
 k-point    51 :   0.5000 0.1282 0.0000  plane waves:    2464
 k-point    52 :   0.5000 0.1410 0.0000  plane waves:    2460
 k-point    53 :   0.5000 0.1538 0.0000  plane waves:    2468
 k-point    54 :   0.5000 0.1667 0.0000  plane waves:    2468
 k-point    55 :   0.5000 0.1795 0.0000  plane waves:    2464
 k-point    56 :   0.5000 0.1923 0.0000  plane waves:    2468
 k-point    57 :   0.5000 0.2051 0.0000  plane waves:    2464
 k-point    58 :   0.5000 0.2179 0.0000  plane waves:    2464
 k-point    59 :   0.5000 0.2308 0.0000  plane waves:    2468
 k-point    60 :   0.5000 0.2436 0.0000  plane waves:    2458
 k-point    61 :   0.5000 0.2564 0.0000  plane waves:    2458
 k-point    62 :   0.5000 0.2692 0.0000  plane waves:    2466
 k-point    63 :   0.5000 0.2821 0.0000  plane waves:    2466
 k-point    64 :   0.5000 0.2949 0.0000  plane waves:    2466
 k-point    65 :   0.5000 0.3077 0.0000  plane waves:    2466
 k-point    66 :   0.5000 0.3205 0.0000  plane waves:    2468
 k-point    67 :   0.5000 0.3333 0.0000  plane waves:    2476
 k-point    68 :   0.5000 0.3462 0.0000  plane waves:    2460
 k-point    69 :   0.5000 0.3590 0.0000  plane waves:    2462
 k-point    70 :   0.5000 0.3718 0.0000  plane waves:    2462
 k-point    71 :   0.5000 0.3846 0.0000  plane waves:    2462
 k-point    72 :   0.5000 0.3974 0.0000  plane waves:    2460
 k-point    73 :   0.5000 0.4103 0.0000  plane waves:    2456
 k-point    74 :   0.5000 0.4231 0.0000  plane waves:    2456
 k-point    75 :   0.5000 0.4359 0.0000  plane waves:    2460
 k-point    76 :   0.5000 0.4487 0.0000  plane waves:    2460
 k-point    77 :   0.5000 0.4615 0.0000  plane waves:    2468
 k-point    78 :   0.5000 0.4744 0.0000  plane waves:    2464
 k-point    79 :   0.5000 0.4872 0.0000  plane waves:    2464
 k-point    80 :   0.5000 0.5000 0.0000  plane waves:    2464
 k-point    81 :   0.5000 0.5000 0.0000  plane waves:    2464
 k-point    82 :   0.4872 0.4872 0.0000  plane waves:    2464
 k-point    83 :   0.4744 0.4744 0.0000  plane waves:    2468
 k-point    84 :   0.4615 0.4615 0.0000  plane waves:    2458
 k-point    85 :   0.4487 0.4487 0.0000  plane waves:    2458
 k-point    86 :   0.4359 0.4359 0.0000  plane waves:    2454
 k-point    87 :   0.4231 0.4231 0.0000  plane waves:    2456
 k-point    88 :   0.4103 0.4103 0.0000  plane waves:    2456
 k-point    89 :   0.3974 0.3974 0.0000  plane waves:    2454
 k-point    90 :   0.3846 0.3846 0.0000  plane waves:    2458
 k-point    91 :   0.3718 0.3718 0.0000  plane waves:    2462
 k-point    92 :   0.3590 0.3590 0.0000  plane waves:    2464
 k-point    93 :   0.3462 0.3462 0.0000  plane waves:    2474
 k-point    94 :   0.3333 0.3333 0.0000  plane waves:    2470
 k-point    95 :   0.3205 0.3205 0.0000  plane waves:    2466
 k-point    96 :   0.3077 0.3077 0.0000  plane waves:    2456
 k-point    97 :   0.2949 0.2949 0.0000  plane waves:    2464
 k-point    98 :   0.2821 0.2821 0.0000  plane waves:    2452
 k-point    99 :   0.2692 0.2692 0.0000  plane waves:    2458
 k-point   100 :   0.2564 0.2564 0.0000  plane waves:    2458
 k-point   101 :   0.2436 0.2436 0.0000  plane waves:    2462
 k-point   102 :   0.2308 0.2308 0.0000  plane waves:    2462
 k-point   103 :   0.2179 0.2179 0.0000  plane waves:    2472
 k-point   104 :   0.2051 0.2051 0.0000  plane waves:    2464
 k-point   105 :   0.1923 0.1923 0.0000  plane waves:    2462
 k-point   106 :   0.1795 0.1795 0.0000  plane waves:    2454
 k-point   107 :   0.1667 0.1667 0.0000  plane waves:    2464
 k-point   108 :   0.1538 0.1538 0.0000  plane waves:    2454
 k-point   109 :   0.1410 0.1410 0.0000  plane waves:    2458
 k-point   110 :   0.1282 0.1282 0.0000  plane waves:    2462
 k-point   111 :   0.1154 0.1154 0.0000  plane waves:    2460
 k-point   112 :   0.1026 0.1026 0.0000  plane waves:    2470
 k-point   113 :   0.0897 0.0897 0.0000  plane waves:    2474
 k-point   114 :   0.0769 0.0769 0.0000  plane waves:    2477
 k-point   115 :   0.0641 0.0641 0.0000  plane waves:    2477
 k-point   116 :   0.0513 0.0513 0.0000  plane waves:    2489
 k-point   117 :   0.0385 0.0385 0.0000  plane waves:    2497
 k-point   118 :   0.0256 0.0256 0.0000  plane waves:    2497
 k-point   119 :   0.0128 0.0128 0.0000  plane waves:    2505
[...]
     60      36.5611      0.00000
     61      36.5906      0.00000
     62      37.3044      0.00000
     63      37.3118      0.00000
     64      37.8925      0.00000
     65      38.2488      0.00000
     66      40.9149      0.00000
     67      41.0943      0.00000
     68      42.0251      0.00000
     69      42.1586      0.00000
     70      42.6864      0.00000
     71      42.8157      0.00000
     72      43.0615      0.00000
     73      44.3853      0.00000
     74      44.4869      0.00000
     75      44.5827      0.00000
     76      45.0704      0.00000
     77      46.0602      0.00000
     78      46.2372      0.00000
     79      46.2739      0.00000
     80      46.4518      0.00000
     81      46.9253      0.00000
     82      47.1660      0.00000
     83      47.2146      0.00000
     84      47.3312      0.00000
     85      48.9695      0.00000
     86      49.0366      0.00000
     87      51.8236      0.00000
     88      51.8560      0.00000
     89      52.7921      0.00000
     90      53.2339      0.00000
     91      53.2422      0.00000
     92      54.2799      0.00000
     93      55.3665      0.00000
     94      55.5586      0.00000
     95      55.9999      0.00000
     96      56.4651      0.00000
     97      57.2821      0.00000
     98      57.2864      0.00000
     99      57.3436      0.00000
    100      57.3667      0.00000
    101      57.5109      0.00000
    102      57.9470      0.00000
    103      58.0306      0.00000
    104      58.1740      0.00000
    105      59.1975      0.00000
    106      60.0103      0.00000
    107      60.0716      0.00000
    108      61.2854      0.00000
    109      61.2918      0.00000
    110      61.3899      0.00000
    111      61.4529      0.00000
    112      62.1095      0.00000
    113      65.2522      0.00000
    114      65.2565      0.00000
    115      66.0064      0.00000
    116      66.0915      0.00000
    117      66.4841      0.00000
    118      68.0007      0.00000
    119      68.1789      0.00000
    120      68.8031      0.00000
    121      69.8723      0.00000
    122      70.0570      0.00000
    123      70.1490      0.00000
    124      70.4908      0.00000
    125      70.7360      0.00000
    126      70.7395      0.00000
    127      72.1715      0.00000
    128      73.1081      0.00000
    129      73.1142      0.00000
    130      73.2004      0.00000
    131      73.2913      0.00000
    132      73.6003      0.00000
    133      74.6313      0.00000
    134      74.9355      0.00000
    135      75.2154      0.00000
    136      76.2332      0.00000
    137      76.6285      0.00000
    138      76.8054      0.00000
    139      76.8430      0.00000
    140      77.2303      0.00000
    141      77.4872      0.00000
    142      77.6476      0.00000
    143      77.8290      0.00000
    144      78.0343      0.00000
    145      78.3363      0.00000
    146      78.3756      0.00000
    147      78.9594      0.00000
    148      79.3582      0.00000
    149      79.5518      0.00000
    150      80.1326      0.00000
    151      80.1635      0.00000
    152      80.9447      0.00000
    153      81.0586      0.00000
    154      81.6996      0.00000
    155      81.8491      0.00000
    156      81.9877      0.00000
    157      81.9985      0.00000
    158      83.9259      0.00000
    159      84.0399      0.00000
    160      84.0981      0.00000

 k-point   200 :       0.5000    0.0000    0.0000
  band No.  band energies     occupation 
      1     -42.4201      2.00000
      2     -21.3018      2.00000
      3     -20.8129      2.00000
      4     -20.8064      2.00000
      5     -20.8064      2.00000
      6     -12.3716      2.00000
      7     -11.8819      2.00000
      8     -10.9051      2.00000
      9      -6.3393      2.00000
     10      -6.3393      2.00000
     11      -6.1860      2.00000
     12       0.5081      2.00000
     13       2.1660      2.00000
     14       2.1660      2.00000
     15       2.2845      2.00000
     16       2.3521      2.00000
     17       2.3521      2.00000
     18       2.3614      2.00000
     19       3.7371      2.00000
     20       3.7371      2.00000
     21       7.6943      0.00000
     22       9.8816      0.00000
     23       9.8816      0.00000
     24      10.3627      0.00000
     25      10.5940      0.00000
     26      11.1569      0.00000
     27      11.6771      0.00000
     28      12.4803      0.00000
     29      12.4803      0.00000
     30      12.9760      0.00000
     31      15.2869      0.00000
     32      15.4257      0.00000
     33      17.0535      0.00000
     34      20.2793      0.00000
     35      21.4641      0.00000
     36      21.4641      0.00000
     37      21.7531      0.00000
     38      21.7531      0.00000
     39      23.3985      0.00000
     40      23.7293      0.00000
     41      23.7293      0.00000
     42      24.7156      0.00000
     43      25.6700      0.00000
     44      25.9277      0.00000
     45      25.9277      0.00000
     46      25.9311      0.00000
     47      27.3532      0.00000
     48      29.4694      0.00000
     49      29.4694      0.00000
     50      30.8513      0.00000
     51      33.3302      0.00000
     52      33.6090      0.00000
     53      33.9597      0.00000
     54      33.9810      0.00000
     55      34.8701      0.00000
     56      35.1904      0.00000
     57      35.6389      0.00000
     58      35.6389      0.00000
     59      36.3765      0.00000
     60      36.5732      0.00000
     61      36.5732      0.00000
     62      37.3185      0.00000
     63      37.3185      0.00000
     64      37.8738      0.00000
     65      38.2410      0.00000
     66      41.0820      0.00000
     67      41.0820      0.00000
     68      41.9851      0.00000
     69      42.0277      0.00000
     70      42.8242      0.00000
     71      42.8242      0.00000
     72      42.9271      0.00000
     73      44.4787      0.00000
     74      44.4787      0.00000
     75      44.5800      0.00000
     76      45.1050      0.00000
     77      45.9860      0.00000
     78      46.2674      0.00000
     79      46.2674      0.00000
     80      46.4691      0.00000
     81      46.9080      0.00000
     82      47.1960      0.00000
     83      47.1960      0.00000
     84      47.2108      0.00000
     85      48.9786      0.00000
     86      49.0234      0.00000
     87      51.8537      0.00000
     88      51.8537      0.00000
     89      52.7685      0.00000
     90      53.2325      0.00000
     91      53.2325      0.00000
     92      54.2844      0.00000
     93      55.5513      0.00000
     94      55.5513      0.00000
     95      55.9113      0.00000
     96      56.4963      0.00000
     97      57.3066      0.00000
     98      57.3513      0.00000
     99      57.3513      0.00000
    100      57.4524      0.00000
    101      57.5381      0.00000
    102      57.9331      0.00000
    103      57.9939      0.00000
    104      57.9939      0.00000
    105      59.0978      0.00000
    106      59.9971      0.00000
    107      60.0890      0.00000
    108      61.2876      0.00000
    109      61.2876      0.00000
    110      61.3854      0.00000
    111      61.3854      0.00000
    112      62.1124      0.00000
    113      65.2623      0.00000
    114      65.2623      0.00000
    115      65.9904      0.00000
    116      66.0426      0.00000
    117      66.4916      0.00000
    118      68.1072      0.00000
    119      68.1847      0.00000
    120      68.9791      0.00000
    121      69.9626      0.00000
    122      70.0025      0.00000
    123      70.0025      0.00000
    124      70.6750      0.00000
    125      70.6750      0.00000
    126      70.8368      0.00000
    127      72.0628      0.00000
    128      73.1110      0.00000
    129      73.1110      0.00000
    130      73.3311      0.00000
    131      73.3311      0.00000
    132      73.3670      0.00000
    133      74.5687      0.00000
    134      74.9382      0.00000
    135      75.2195      0.00000
    136      76.3879      0.00000
    137      76.7061      0.00000
    138      76.8824      0.00000
    139      76.8824      0.00000
    140      77.4934      0.00000
    141      77.4934      0.00000
    142      77.6768      0.00000
    143      77.7411      0.00000
    144      77.7411      0.00000
    145      78.3763      0.00000
    146      78.7788      0.00000
    147      78.7788      0.00000
    148      78.8041      0.00000
    149      79.4751      0.00000
    150      80.2405      0.00000
    151      80.2405      0.00000
    152      81.2285      0.00000
    153      81.4115      0.00000
    154      81.5743      0.00000
    155      81.5743      0.00000
    156      81.6804      0.00000
    157      81.8282      0.00000
    158      84.0870      0.00000
    159      84.0897      0.00000
    160      84.3388      0.00000


--------------------------------------------------------------------------------------------------------


 soft charge-density along one line, spin component           1
         0         1         2         3         4         5         6         7         8         9
 total charge-density along one line
 
 pseudopotential strength for first ion, spin component:           1
  0.728  -4.612   0.000   0.000   0.000   0.000   0.000  -0.000
 -4.612   0.402  -0.000  -0.000  -0.000   0.000   0.000   0.000
  0.000  -0.000  -7.798   0.000   0.000   4.353   0.000   0.000
  0.000  -0.000   0.000  -7.798  -0.000   0.000   4.353  -0.000
  0.000  -0.000   0.000  -0.000  -7.798   0.000  -0.000   4.353
  0.000   0.000   4.353   0.000   0.000   6.914  -0.000  -0.000
  0.000   0.000   0.000   4.353  -0.000  -0.000   6.914   0.000
 -0.000   0.000   0.000  -0.000   4.353  -0.000   0.000   6.914
  0.000  -0.000   0.000   0.000   0.000  -0.000   0.000   0.000
  0.000  -0.000   0.000   0.000   0.000   0.000   0.000   0.000
 -0.000   0.000  -0.000   0.000  -0.000  -0.000   0.000   0.000
 -0.000   0.000   0.000   0.000   0.000   0.000   0.000   0.000
 -0.000   0.000  -0.000   0.000   0.000  -0.000   0.000   0.000
  0.000  -0.000   0.000   0.000   0.000   0.000   0.000   0.000
  0.000  -0.000   0.000   0.000   0.000   0.000   0.000   0.000
 -0.000   0.000  -0.000   0.000  -0.000  -0.000   0.000  -0.000
 -0.000   0.000   0.000   0.000   0.000   0.000   0.000   0.000
 -0.000   0.000  -0.000   0.000   0.000  -0.000   0.000   0.000
 total augmentation occupancy for first ion, spin component:           1
  2.000   0.000   0.000   0.000   0.000   0.000   0.000   0.000   0.000   0.000   0.000   0.000   0.000   0.000   0.000   0.000
  0.000   1.990   0.000   0.000   0.000   0.000   0.000   0.000   0.000   0.000   0.000   0.000   0.000   0.000   0.000   0.000
  0.000   0.000   2.000   0.000   0.000   0.000   0.000   0.000   0.000   0.000   0.000   0.000   0.000   0.000   0.000   0.000
  0.000   0.000   0.000   2.000   0.000   0.000   0.000   0.000   0.000   0.000   0.000   0.000   0.000   0.000   0.000   0.000
  0.000   0.000   0.000   0.000   2.000   0.000   0.000   0.000   0.000   0.000   0.000   0.000   0.000   0.000   0.000   0.000
  0.000   0.000   0.000   0.000   0.000   0.000   0.000   0.000   0.000   0.000   0.000   0.000   0.000   0.000   0.000   0.000
  0.000   0.000   0.000   0.000   0.000   0.000   0.000   0.000   0.000   0.000   0.000   0.000   0.000   0.000   0.000   0.000
  0.000   0.000   0.000   0.000   0.000   0.000   0.000   0.000   0.000   0.000   0.000   0.000   0.000   0.000   0.000   0.000
  0.000   0.000   0.000   0.000   0.000   0.000   0.000   0.000   0.002   0.000   0.000   0.000   0.000   0.000   0.000   0.000
  0.000   0.000   0.000   0.000   0.000   0.000   0.000   0.000   0.000   0.002   0.000   0.000   0.000   0.000   0.000   0.000
  0.000   0.000   0.000   0.000   0.000   0.000   0.000   0.000   0.000   0.000   0.002   0.000   0.000   0.000   0.000   0.000
  0.000   0.000   0.000   0.000   0.000   0.000   0.000   0.000   0.000   0.000   0.000   0.002   0.000   0.000   0.000   0.000
  0.000   0.000   0.000   0.000   0.000   0.000   0.000   0.000   0.000   0.000   0.000   0.000   0.002   0.000   0.000   0.000
  0.000   0.000   0.000   0.000   0.000   0.000   0.000   0.000   0.000   0.000   0.000   0.000   0.000   0.000   0.000   0.000
  0.000   0.000   0.000   0.000   0.000   0.000   0.000   0.000   0.000   0.000   0.000   0.000   0.000   0.000   0.000   0.000
  0.000   0.000   0.000   0.000   0.000   0.000   0.000   0.000   0.000   0.000   0.000   0.000   0.000   0.000   0.000   0.000
  0.000   0.000   0.000   0.000   0.000   0.000   0.000   0.000   0.000   0.000   0.000   0.000   0.000   0.000   0.000   0.000
  0.000   0.000   0.000   0.000   0.000   0.000   0.000   0.000   0.000   0.000   0.000   0.000   0.000   0.000   0.000   0.000


------------------------ aborting loop because EDIFF is reached ----------------------------------------





 total charge

# of ion       s       p       d       tot
------------------------------------------
    1        2.003   5.651   0.247   7.902
    2        2.163   6.127   1.264   9.553
    3        1.548   3.514   0.000   5.062
    4        1.548   3.514   0.000   5.062
    5        1.548   3.514   0.000   5.062
--------------------------------------------------
tot          8.811  22.319   1.511  32.641
 
    CHARGE:  cpu time      0.1103: real time      0.1122
    FORLOC:  cpu time      0.0010: real time      0.0010
    FORNL :  cpu time      0.0865: real time      0.0881
    STRESS:  cpu time      5.2745: real time      5.3174
    FORCOR:  cpu time      0.0079: real time      0.0081
    FORHAR:  cpu time      0.0040: real time      0.0041
    OFIELD:  cpu time      0.0009: real time      0.0010

  FORCE on cell =-STRESS in cart. coord.  units (eV):
  Direction    XX          YY          ZZ          XY          YZ          ZX
  --------------------------------------------------------------------------------------
  Alpha Z   240.34259   240.34259   240.34259
  Ewald    -897.79392  -897.79392  -897.79392     0.00000    -0.00000    -0.00000
  Hartree   232.59549   232.59549   232.59549    -0.00000    -0.00000    -0.00000
  E(xc)    -177.31330  -177.31330  -177.31330     0.00000     0.00000    -0.00000
  Local     -65.03356   -65.03356   -65.03356    -0.00000    -0.00000     0.00000
  n-local  -117.01728  -111.58893  -106.50041     0.08163     0.10401     0.04700
  augment    15.84798    15.84798    15.84798     0.00000    -0.00000     0.00000
  Kinetic   747.80998   758.04258   758.09611    -1.62742    -1.81388    -0.86792
  Fock        0.00000     0.00000     0.00000     0.00000     0.00000     0.00000
  -------------------------------------------------------------------------------------
  Total      -8.40736    -8.40736    -8.40736    -0.00000     0.00000    -0.00000
  in kB    -182.85482  -182.85482  -182.85482    -0.00000     0.00000    -0.00000
  external pressure =     -182.85 kB  Pullay stress =        0.00 kB


 VOLUME and BASIS-vectors are now :
 -----------------------------------------------------------------------------
  energy-cutoff  :      600.00
  volume of cell :       73.67
      direct lattice vectors                 reciprocal lattice vectors
     4.192000000  0.000000000  0.000000000     0.238549618  0.000000000  0.000000000
     0.000000000  4.192000000  0.000000000     0.000000000  0.238549618  0.000000000
     0.000000000  0.000000000  4.192000000     0.000000000  0.000000000  0.238549618

  length of vectors
     4.192000000  4.192000000  4.192000000     0.238549618  0.238549618  0.238549618


 FORCES acting on ions
    electron-ion (+dipol)            ewald-force                    non-local-force                 convergence-correction
 -----------------------------------------------------------------------------------------------
   -.601E-15 -.647E-17 0.414E-16   -.367E-14 -.107E-14 -.461E-14   -.818E-29 0.474E-29 0.610E-29   -.301E-13 -.354E-13 -.467E-13
   0.161E-12 0.101E-11 0.448E-11   0.536E-14 0.798E-14 0.754E-14   -.195E-26 0.951E-27 -.197E-26   0.243E-14 0.134E-12 0.169E-12
   0.175E-12 0.198E-11 0.114E-11   0.720E-14 0.306E-14 -.647E-14   0.735E-28 -.206E-27 0.503E-28   0.461E-13 0.648E-13 -.706E-13
   0.175E-12 -.409E-14 0.408E-11   0.153E-15 -.939E-14 0.201E-14   -.265E-27 0.510E-28 0.280E-28   -.164E-13 -.548E-13 0.710E-13
   -.349E-14 0.175E-12 0.163E-12   -.906E-14 0.514E-15 0.200E-14   -.143E-27 0.736E-28 0.336E-27   0.220E-14 0.137E-13 -.457E-14
 -----------------------------------------------------------------------------------------------
   0.507E-12 0.316E-11 0.987E-11   -.209E-16 0.110E-14 0.468E-15   -.230E-26 0.875E-27 -.155E-26   0.423E-14 0.122E-12 0.118E-12
 
 
 POSITION                                       TOTAL-FORCE (eV/Angst)
 -----------------------------------------------------------------------------------
      0.00000      0.00000      0.00000        -0.000000     -0.000000     -0.000000
      2.09600      2.09600      2.09600         0.000000      0.000000      0.000000
      2.09600      2.09600      0.00000        -0.000000     -0.000000     -0.000000
      2.09600      0.00000      2.09600        -0.000000      0.000000     -0.000000
      0.00000      2.09600      2.09600        -0.000000     -0.000000     -0.000000
 -----------------------------------------------------------------------------------
    total drift:                                0.000000      0.000000      0.000000


--------------------------------------------------------------------------------------------------------



  FREE ENERGIE OF THE ION-ELECTRON SYSTEM (eV)
  ---------------------------------------------------
  free  energy   TOTEN  =       -39.64311382 eV

  energy  without entropy=      -39.64311382  energy(sigma->0) =      -39.64311382
 


--------------------------------------------------------------------------------------------------------


    POTLOK:  cpu time      0.0890: real time      0.0897


--------------------------------------------------------------------------------------------------------


 stress matrix after NEB project (eV)
     -8.40736     -0.00000     -0.00000
     -0.00000     -8.40736     -0.00000
      0.00000      0.00000     -8.40736
  FORCES: max atom, RMS     0.000000    0.000000
  FORCE total and by dimension    0.000000    0.000000
  Stress total and by dimension   14.561975    8.407360
     LOOP+:  cpu time    490.7866: real time    495.9715
    4ORBIT:  cpu time      0.0000: real time      0.0000



 total charge

# of ion       s       p       d       tot
------------------------------------------
    1        2.003   5.651   0.247   7.902
    2        2.163   6.127   1.264   9.553
    3        1.548   3.514   0.000   5.062
    4        1.548   3.514   0.000   5.062
    5        1.548   3.514   0.000   5.062
--------------------------------------------------
tot          8.811  22.319   1.511  32.641
 

 total amount of memory used by VASP MPI-rank0   262793. kBytes
=======================================================================

   base      :      30000. kBytes
   nonl-proj :     221388. kBytes
   fftplans  :        399. kBytes
   grid      :       2225. kBytes
   one-center:         77. kBytes
   wavefun   :       8704. kBytes
 
  
  
 General timing and accounting informations for this job:
 ========================================================
  
                  Total CPU time used (sec):      502.150
                            User time (sec):      498.032
                          System time (sec):        4.118
                         Elapsed time (sec):      511.131
  
                   Maximum memory used (kb):     1422364.
                   Average memory used (kb):          N/A
  
                          Minor page faults:       216851
                          Major page faults:          351
                 Voluntary context switches:         3945
