   5   5   0   0
  0.1473309E+02  0.4192000E-09  0.4192000E-09  0.4192000E-09  0.5000000E-15
  1.000000000000000E-004
  CAR 
 BaZrO3 SCF                              
     89.58420534    -49.99271043  301      4.09334443      1.00000000
    -49.993  0.0000E+00  0.0000E+00
    -49.527  0.0000E+00  0.0000E+00
    -49.062  0.0000E+00  0.0000E+00
    -48.597  0.0000E+00  0.0000E+00
    -48.132  0.0000E+00  0.0000E+00
    -47.666  0.0000E+00  0.0000E+00
    -47.201  0.0000E+00  0.0000E+00
    -46.736  0.0000E+00  0.0000E+00
    -46.271  0.0000E+00  0.0000E+00
    -45.805  0.0000E+00  0.0000E+00
    -45.340  0.0000E+00  0.0000E+00
    -44.875  0.0000E+00  0.0000E+00
    -44.410  0.0000E+00  0.0000E+00
    -43.944  0.0000E+00  0.0000E+00
    -43.479  0.8597E-01  0.4000E-01
    -43.014  0.0000E+00  0.4000E-01
    -42.549  0.0000E+00  0.4000E-01
    -42.083  0.0000E+00  0.4000E-01
    -41.618  0.0000E+00  0.4000E-01
    -41.153  0.0000E+00  0.4000E-01
    -40.688  0.0000E+00  0.4000E-01
    -40.222  0.0000E+00  0.4000E-01
    -39.757  0.0000E+00  0.4000E-01
    -39.292  0.0000E+00  0.4000E-01
    -38.827  0.0000E+00  0.4000E-01
    -38.361  0.0000E+00  0.4000E-01
    -37.896  0.0000E+00  0.4000E-01
    -37.431  0.0000E+00  0.4000E-01
    -36.966  0.0000E+00  0.4000E-01
    -36.500  0.0000E+00  0.4000E-01
    -36.035  0.0000E+00  0.4000E-01
    -35.570  0.0000E+00  0.4000E-01
    -35.105  0.0000E+00  0.4000E-01
    -34.639  0.0000E+00  0.4000E-01
    -34.174  0.0000E+00  0.4000E-01
    -33.709  0.0000E+00  0.4000E-01
    -33.243  0.0000E+00  0.4000E-01
    -32.778  0.0000E+00  0.4000E-01
    -32.313  0.0000E+00  0.4000E-01
    -31.848  0.0000E+00  0.4000E-01
    -31.382  0.0000E+00  0.4000E-01
    -30.917  0.0000E+00  0.4000E-01
    -30.452  0.0000E+00  0.4000E-01
    -29.987  0.0000E+00  0.4000E-01
    -29.521  0.0000E+00  0.4000E-01
    -29.056  0.0000E+00  0.4000E-01
    -28.591  0.0000E+00  0.4000E-01
    -28.126  0.0000E+00  0.4000E-01
    -27.660  0.0000E+00  0.4000E-01
    -27.195  0.0000E+00  0.4000E-01
    -26.730  0.0000E+00  0.4000E-01
    -26.265  0.0000E+00  0.4000E-01
    -25.799  0.0000E+00  0.4000E-01
    -25.334  0.0000E+00  0.4000E-01
    -24.869  0.0000E+00  0.4000E-01
    -24.404  0.0000E+00  0.4000E-01
    -23.938  0.0000E+00  0.4000E-01
    -23.473  0.0000E+00  0.4000E-01
    -23.008  0.0000E+00  0.4000E-01
    -22.543  0.0000E+00  0.4000E-01
    -22.077  0.7273E-02  0.4338E-01
    -21.612  0.3150E+00  0.1996E+00
    -21.147  0.0000E+00  0.2000E+00
    -20.682  0.0000E+00  0.2000E+00
    -20.216  0.0000E+00  0.2000E+00
    -19.751  0.0000E+00  0.2000E+00
    -19.286  0.0000E+00  0.2000E+00
    -18.821  0.0000E+00  0.2000E+00
    -18.355  0.0000E+00  0.2000E+00
    -17.890  0.0000E+00  0.2000E+00
    -17.425  0.0000E+00  0.2000E+00
    -16.960  0.0000E+00  0.2000E+00
    -16.494  0.0000E+00  0.2000E+00
    -16.029  0.0000E+00  0.2000E+00
    -15.564  0.0000E+00  0.2000E+00
    -15.098  0.0000E+00  0.2000E+00
    -14.633  0.0000E+00  0.2000E+00
    -14.168  0.0000E+00  0.2000E+00
    -13.703  0.0000E+00  0.2000E+00
    -13.237  0.0000E+00  0.2000E+00
    -12.772  0.7093E-02  0.2033E+00
    -12.307  0.7577E-01  0.2449E+00
    -11.842  0.8175E-01  0.2959E+00
    -11.376  0.4299E-01  0.3200E+00
    -10.911  0.0000E+00  0.3200E+00
    -10.446  0.0000E+00  0.3200E+00
     -9.981  0.0000E+00  0.3200E+00
     -9.515  0.0000E+00  0.3200E+00
     -9.050  0.0000E+00  0.3200E+00
     -8.585  0.0000E+00  0.3200E+00
     -8.120  0.0000E+00  0.3200E+00
     -7.654  0.2353E-14  0.3200E+00
     -7.189  0.2413E-01  0.3312E+00
     -6.724  0.2143E+00  0.4399E+00
     -6.259  0.0000E+00  0.4400E+00
     -5.793  0.0000E+00  0.4400E+00
     -5.328  0.0000E+00  0.4400E+00
     -4.863  0.0000E+00  0.4400E+00
     -4.398  0.0000E+00  0.4400E+00
     -3.932  0.0000E+00  0.4400E+00
     -3.467  0.0000E+00  0.4400E+00
     -3.002  0.0000E+00  0.4400E+00
     -2.537  0.0000E+00  0.4400E+00
     -2.071  0.0000E+00  0.4400E+00
     -1.606  0.0000E+00  0.4400E+00
     -1.141  0.0000E+00  0.4400E+00
     -0.676  0.0000E+00  0.4400E+00
     -0.210  0.1319E-05  0.4400E+00
      0.255  0.5086E-01  0.4637E+00
      0.720  0.1140E+00  0.5170E+00
      1.185  0.4876E-01  0.5432E+00
      1.651  0.1193E+00  0.6070E+00
      2.116  0.7531E-01  0.6550E+00
      2.581  0.5069E-01  0.6860E+00
      3.047  0.1387E+00  0.7623E+00
      3.512  0.5928E-01  0.7978E+00
      3.977  0.0000E+00  0.8000E+00
      4.442  0.0000E+00  0.8000E+00
      4.908  0.0000E+00  0.8000E+00
      5.373  0.0000E+00  0.8000E+00
      5.838  0.0000E+00  0.8000E+00
      6.303  0.0000E+00  0.8000E+00
      6.769  0.2130E-02  0.8010E+00
      7.234  0.4569E-02  0.8038E+00
      7.699  0.3432E-01  0.8216E+00
      8.164  0.1771E-01  0.8301E+00
      8.630  0.5460E-01  0.8558E+00
      9.095  0.5136E-01  0.8876E+00
      9.560  0.6099E-01  0.9233E+00
     10.025  0.3298E-01  0.9439E+00
     10.491  0.6175E-01  0.9756E+00
     10.956  0.7332E-01  0.1020E+01
     11.421  0.7977E-01  0.1060E+01
     11.886  0.8271E-01  0.1103E+01
     12.352  0.1012E+00  0.1156E+01
     12.817  0.3797E-01  0.1175E+01
     13.282  0.2221E-01  0.1188E+01
     13.747  0.1432E-01  0.1197E+01
     14.213  0.3398E-01  0.1212E+01
     14.678  0.4331E-01  0.1234E+01
     15.143  0.2005E-01  0.1245E+01
     15.608  0.1417E-01  0.1254E+01
     16.074  0.4389E-02  0.1257E+01
     16.539  0.3170E-01  0.1272E+01
     17.004  0.5563E-01  0.1301E+01
     17.469  0.3418E-01  0.1320E+01
     17.935  0.6061E-01  0.1351E+01
     18.400  0.4948E-01  0.1381E+01
     18.865  0.4100E-01  0.1401E+01
     19.330  0.2940E-01  0.1414E+01
     19.796  0.2988E-01  0.1431E+01
     20.261  0.3737E-01  0.1454E+01
     20.726  0.4289E-01  0.1476E+01
     21.192  0.3615E-01  0.1500E+01
     21.657  0.7294E-01  0.1539E+01
     22.122  0.5114E-01  0.1564E+01
     22.587  0.3185E-01  0.1581E+01
     23.053  0.7103E-01  0.1617E+01
     23.518  0.4531E-01  0.1638E+01
     23.983  0.3501E-01  0.1655E+01
     24.448  0.5180E-01  0.1682E+01
     24.914  0.6216E-01  0.1717E+01
     25.379  0.4422E-01  0.1743E+01
     25.844  0.3817E-01  0.1765E+01
     26.309  0.4058E-01  0.1784E+01
     26.775  0.5164E-01  0.1808E+01
     27.240  0.5852E-01  0.1835E+01
     27.705  0.4578E-01  0.1865E+01
     28.170  0.4762E-01  0.1888E+01
     28.636  0.3353E-01  0.1905E+01
     29.101  0.4841E-01  0.1930E+01
     29.566  0.2510E-01  0.1944E+01
     30.031  0.3278E-01  0.1960E+01
     30.497  0.3490E-01  0.1988E+01
     30.962  0.5640E-01  0.2025E+01
     31.427  0.3066E-01  0.2043E+01
     31.892  0.8640E-01  0.2084E+01
     32.358  0.6690E-01  0.2118E+01
     32.823  0.5883E-01  0.2149E+01
     33.288  0.1089E+00  0.2201E+01
     33.753  0.6700E-01  0.2241E+01
     34.219  0.4868E-01  0.2269E+01
     34.684  0.6392E-01  0.2305E+01
     35.149  0.7080E-01  0.2346E+01
     35.614  0.9762E-01  0.2397E+01
     36.080  0.8518E-01  0.2437E+01
     36.545  0.1097E+00  0.2489E+01
     37.010  0.2265E-01  0.2503E+01
     37.475  0.5979E-01  0.2535E+01
     37.941  0.5917E-01  0.2565E+01
     38.406  0.8443E-01  0.2607E+01
     38.871  0.4835E-01  0.2640E+01
     39.337  0.2357E-01  0.2653E+01
     39.802  0.7130E-01  0.2690E+01
     40.267  0.5639E-01  0.2719E+01
     40.732  0.7644E-01  0.2758E+01
     41.198  0.5626E-01  0.2790E+01
     41.663  0.4114E-01  0.2811E+01
     42.128  0.5566E-01  0.2842E+01
     42.593  0.7021E-01  0.2877E+01
     43.059  0.5327E-01  0.2909E+01
     43.524  0.5575E-01  0.2938E+01
     43.989  0.7478E-01  0.2979E+01
     44.454  0.6720E-01  0.3013E+01
     44.920  0.7202E-01  0.3049E+01
     45.385  0.8976E-01  0.3097E+01
     45.850  0.7613E-01  0.3138E+01
     46.315  0.3723E-01  0.3158E+01
     46.781  0.9160E-01  0.3202E+01
     47.246  0.7234E-01  0.3252E+01
     47.711  0.7998E-01  0.3294E+01
     48.176  0.5547E-01  0.3324E+01
     48.642  0.5767E-01  0.3352E+01
     49.107  0.6501E-01  0.3389E+01
     49.572  0.5022E-01  0.3418E+01
     50.037  0.7326E-01  0.3461E+01
     50.503  0.8190E-01  0.3502E+01
     50.968  0.7538E-01  0.3539E+01
     51.433  0.7010E-01  0.3573E+01
     51.898  0.7195E-01  0.3609E+01
     52.364  0.5935E-01  0.3646E+01
     52.829  0.9127E-01  0.3695E+01
     53.294  0.6409E-01  0.3727E+01
     53.759  0.6004E-01  0.3757E+01
     54.225  0.8883E-01  0.3799E+01
     54.690  0.4951E-01  0.3828E+01
     55.155  0.3569E-01  0.3850E+01
     55.620  0.9952E-01  0.3903E+01
     56.086  0.5268E-01  0.3929E+01
     56.551  0.7598E-01  0.3971E+01
     57.016  0.5938E-01  0.4001E+01
     57.482  0.9836E-01  0.4053E+01
     57.947  0.8745E-01  0.4097E+01
     58.412  0.6401E-01  0.4134E+01
     58.877  0.7337E-01  0.4174E+01
     59.343  0.6343E-01  0.4215E+01
     59.808  0.5768E-01  0.4246E+01
     60.273  0.6278E-01  0.4283E+01
     60.738  0.9442E-01  0.4337E+01
     61.204  0.1096E+00  0.4398E+01
     61.669  0.9373E-01  0.4449E+01
     62.134  0.5217E-01  0.4478E+01
     62.599  0.5795E-01  0.4512E+01
     63.065  0.8839E-01  0.4555E+01
     63.530  0.5582E-01  0.4587E+01
     63.995  0.5700E-01  0.4618E+01
     64.460  0.6829E-01  0.4656E+01
     64.926  0.5965E-01  0.4694E+01
     65.391  0.8173E-01  0.4737E+01
     65.856  0.1204E+00  0.4801E+01
     66.321  0.1156E+00  0.4860E+01
     66.787  0.4297E-01  0.4886E+01
     67.252  0.7053E-01  0.4927E+01
     67.717  0.8301E-01  0.4975E+01
     68.182  0.8184E-01  0.5016E+01
     68.648  0.5195E-01  0.5051E+01
     69.113  0.8255E-01  0.5091E+01
     69.578  0.5945E-01  0.5121E+01
     70.043  0.8082E-01  0.5164E+01
     70.509  0.7283E-01  0.5205E+01
     70.974  0.8949E-01  0.5247E+01
     71.439  0.8696E-01  0.5292E+01
     71.904  0.7316E-01  0.5335E+01
     72.370  0.6898E-01  0.5373E+01
     72.835  0.1038E+00  0.5426E+01
     73.300  0.8866E-01  0.5469E+01
     73.765  0.8854E-01  0.5512E+01
     74.231  0.7393E-01  0.5550E+01
     74.696  0.7164E-01  0.5589E+01
     75.161  0.5885E-01  0.5623E+01
     75.627  0.8947E-01  0.5671E+01
     76.092  0.7282E-01  0.5705E+01
     76.557  0.9740E-01  0.5753E+01
     77.022  0.9337E-01  0.5796E+01
     77.488  0.4217E-01  0.5830E+01
     77.953  0.1072E+00  0.5888E+01
     78.418  0.9889E-01  0.5944E+01
     78.883  0.8754E-01  0.5987E+01
     79.349  0.5317E-01  0.6016E+01
     79.814  0.9626E-01  0.6062E+01
     80.279  0.7397E-01  0.6109E+01
     80.744  0.1089E+00  0.6169E+01
     81.210  0.1209E+00  0.6230E+01
     81.675  0.9124E-01  0.6278E+01
     82.140  0.7566E-01  0.6320E+01
     82.605  0.8615E-01  0.6370E+01
     83.071  0.3778E-01  0.6393E+01
     83.536  0.4776E-02  0.6400E+01
     84.001  0.0000E+00  0.6400E+01
     84.466  0.0000E+00  0.6400E+01
     84.932  0.0000E+00  0.6400E+01
     85.397  0.0000E+00  0.6400E+01
     85.862  0.0000E+00  0.6400E+01
     86.327  0.0000E+00  0.6400E+01
     86.793  0.0000E+00  0.6400E+01
     87.258  0.0000E+00  0.6400E+01
     87.723  0.0000E+00  0.6400E+01
     88.188  0.0000E+00  0.6400E+01
     88.654  0.0000E+00  0.6400E+01
     89.119  0.0000E+00  0.6400E+01
     89.584  0.0000E+00  0.6400E+01
