    5    5   50    1
  0.1473309E+02  0.4192000E-09  0.4192000E-09  0.4192000E-09  0.5000000E-15
  1.000000000000000E-004
  CAR 
 BaZrO3 SCF                              
     40     20    160
 
  0.1276756E-14  0.1276756E-14  0.1276756E-14  0.4629630E-02
      1        -43.648305   1.000000
      2        -21.845620   1.000000
      3        -21.768254   1.000000
      4        -21.768254   1.000000
      5        -21.768254   1.000000
      6        -12.749726   1.000000
      7        -12.451083   1.000000
      8        -12.451083   1.000000
      9         -6.976599   1.000000
     10         -6.976599   1.000000
     11         -6.976599   1.000000
     12          2.071544   1.000000
     13          2.071544   1.000000
     14          2.071544   1.000000
     15          2.626520   1.000000
     16          2.626520   1.000000
     17          2.626520   1.000000
     18          3.309882   1.000000
     19          3.309882   1.000000
     20          3.309882   1.000000
     21          6.686821   0.000000
     22          6.686821   0.000000
     23          6.686822   0.000000
     24          8.180686   0.000000
     25          8.180686   0.000000
     26          9.205805   0.000000
     27         10.686431   0.000000
     28         10.686431   0.000000
     29         11.855173   0.000000
     30         11.855173   0.000000
     31         11.855173   0.000000
     32         18.528049   0.000000
     33         18.528049   0.000000
     34         18.528049   0.000000
     35         18.535380   0.000000
     36         20.947694   0.000000
     37         22.252466   0.000000
     38         22.252466   0.000000
     39         22.252466   0.000000
     40         23.890784   0.000000
     41         23.890784   0.000000
     42         26.426135   0.000000
     43         26.426135   0.000000
     44         26.426136   0.000000
     45         27.717620   0.000000
     46         27.717620   0.000000
     47         27.717620   0.000000
     48         31.185086   0.000000
     49         31.185086   0.000000
     50         31.185086   0.000000
     51         31.337238   0.000000
     52         31.337238   0.000000
     53         31.663903   0.000000
     54         31.663903   0.000000
     55         31.663903   0.000000
     56         32.412263   0.000000
     57         33.360876   0.000000
     58         33.360876   0.000000
     59         33.360876   0.000000
     60         36.425190   0.000000
     61         36.425190   0.000000
     62         36.425190   0.000000
     63         36.862337   0.000000
     64         37.751442   0.000000
     65         37.822917   0.000000
     66         38.889864   0.000000
     67         38.889864   0.000000
     68         38.889864   0.000000
     69         39.661509   0.000000
     70         39.661509   0.000000
     71         41.067515   0.000000
     72         41.067515   0.000000
     73         41.067515   0.000000
     74         42.414651   0.000000
     75         42.414651   0.000000
     76         42.414651   0.000000
     77         44.430406   0.000000
     78         44.430406   0.000000
     79         44.430406   0.000000
     80         45.724095   0.000000
     81         45.724095   0.000000
     82         45.724095   0.000000
     83         47.855452   0.000000
     84         47.855452   0.000000
     85         48.162883   0.000000
     86         48.162884   0.000000
     87         49.185604   0.000000
     88         49.185604   0.000000
     89         49.185604   0.000000
     90         51.560725   0.000000
     91         51.560725   0.000000
     92         51.560725   0.000000
     93         52.807050   0.000000
     94         52.807050   0.000000
     95         52.807051   0.000000
     96         55.121574   0.000000
     97         57.714164   0.000000
     98         57.714164   0.000000
     99         57.714164   0.000000
    100         58.159736   0.000000
    101         58.179873   0.000000
    102         58.179873   0.000000
    103         58.179873   0.000000
    104         58.197178   0.000000
    105         58.197178   0.000000
    106         58.225529   0.000000
    107         58.225529   0.000000
    108         58.225530   0.000000
    109         58.702795   0.000000
    110         63.514894   0.000000
    111         63.514894   0.000000
    112         64.392032   0.000000
    113         66.050073   0.000000
    114         66.050073   0.000000
    115         66.050073   0.000000
    116         67.002855   0.000000
    117         67.002855   0.000000
    118         67.002855   0.000000
    119         67.793508   0.000000
    120         67.793508   0.000000
    121         67.793508   0.000000
    122         68.282870   0.000000
    123         68.282870   0.000000
    124         70.426616   0.000000
    125         70.725716   0.000000
    126         70.725716   0.000000
    127         70.725716   0.000000
    128         70.732011   0.000000
    129         70.732011   0.000000
    130         70.732011   0.000000
    131         71.133421   0.000000
    132         71.133421   0.000000
    133         71.299068   0.000000
    134         71.299068   0.000000
    135         71.299069   0.000000
    136         71.955660   0.000000
    137         71.955660   0.000000
    138         71.955660   0.000000
    139         75.552496   0.000000
    140         75.552496   0.000000
    141         76.167791   0.000000
    142         76.167791   0.000000
    143         76.167791   0.000000
    144         76.241372   0.000000
    145         76.699325   0.000000
    146         76.699325   0.000000
    147         76.699325   0.000000
    148         77.507307   0.000000
    149         77.507307   0.000000
    150         77.507307   0.000000
    151         79.917578   0.000000
    152         79.917579   0.000000
    153         81.085532   0.000000
    154         81.826802   0.000000
    155         81.826802   0.000000
    156         81.826802   0.000000
    157         81.862178   0.000000
    158         81.862178   0.000000
    159         81.862178   0.000000
    160         82.464266   0.000000
 
  0.1666667E+00  0.1276756E-14  0.1276756E-14  0.2777778E-01
      1        -43.647611   1.000000
      2        -21.930686   1.000000
      3        -21.766779   1.000000
      4        -21.766779   1.000000
      5        -21.724795   1.000000
      6        -12.748042   1.000000
      7        -12.445634   1.000000
      8        -12.290874   1.000000
      9         -6.961048   1.000000
     10         -6.961048   1.000000
     11         -6.933264   1.000000
     12          1.636814   1.000000
     13          1.994098   1.000000
     14          1.994098   1.000000
     15          2.387479   1.000000
     16          2.387479   1.000000
     17          2.439296   1.000000
     18          2.695418   1.000000
     19          3.222220   1.000000
     20          3.222220   1.000000
     21          6.777786   0.000000
     22          7.265134   0.000000
     23          7.265135   0.000000
     24          8.591840   0.000000
     25          8.612168   0.000000
     26          9.772195   0.000000
     27         10.686813   0.000000
     28         11.486658   0.000000
     29         11.574537   0.000000
     30         11.951835   0.000000
     31         11.951835   0.000000
     32         17.344836   0.000000
     33         18.736654   0.000000
     34         18.736654   0.000000
     35         19.793233   0.000000
     36         21.358238   0.000000
     37         21.590519   0.000000
     38         21.611086   0.000000
     39         22.368305   0.000000
     40         22.368305   0.000000
     41         23.929398   0.000000
     42         25.060743   0.000000
     43         25.060744   0.000000
     44         26.527277   0.000000
     45         27.253979   0.000000
     46         27.253979   0.000000
     47         28.739700   0.000000
     48         29.785002   0.000000
     49         30.269066   0.000000
     50         30.269066   0.000000
     51         31.330348   0.000000
     52         31.520014   0.000000
     53         31.760976   0.000000
     54         32.518136   0.000000
     55         32.518136   0.000000
     56         34.205396   0.000000
     57         34.205396   0.000000
     58         34.367768   0.000000
     59         34.631043   0.000000
     60         36.566327   0.000000
     61         36.784973   0.000000
     62         36.862598   0.000000
     63         36.862598   0.000000
     64         36.913324   0.000000
     65         37.304872   0.000000
     66         37.864697   0.000000
     67         39.153600   0.000000
     68         39.838516   0.000000
     69         39.838516   0.000000
     70         39.909199   0.000000
     71         40.413423   0.000000
     72         40.413423   0.000000
     73         41.296820   0.000000
     74         41.296820   0.000000
     75         42.411283   0.000000
     76         43.007281   0.000000
     77         43.262744   0.000000
     78         44.899470   0.000000
     79         45.576978   0.000000
     80         45.576978   0.000000
     81         46.668643   0.000000
     82         47.590435   0.000000
     83         47.590435   0.000000
     84         47.800038   0.000000
     85         49.144404   0.000000
     86         49.144404   0.000000
     87         49.565175   0.000000
     88         50.497398   0.000000
     89         50.628783   0.000000
     90         50.628783   0.000000
     91         50.747343   0.000000
     92         51.162166   0.000000
     93         52.026827   0.000000
     94         52.026828   0.000000
     95         52.725463   0.000000
     96         54.312072   0.000000
     97         54.594759   0.000000
     98         55.143036   0.000000
     99         55.143036   0.000000
    100         56.501019   0.000000
    101         56.791611   0.000000
    102         58.174850   0.000000
    103         60.071993   0.000000
    104         60.340004   0.000000
    105         60.340005   0.000000
    106         60.584975   0.000000
    107         61.091226   0.000000
    108         61.374481   0.000000
    109         61.374481   0.000000
    110         61.955299   0.000000
    111         63.092642   0.000000
    112         63.092642   0.000000
    113         63.969302   0.000000
    114         64.665254   0.000000
    115         65.182194   0.000000
    116         65.631432   0.000000
    117         65.631432   0.000000
    118         65.633544   0.000000
    119         65.674884   0.000000
    120         67.676416   0.000000
    121         67.826644   0.000000
    122         67.826644   0.000000
    123         67.909450   0.000000
    124         68.851004   0.000000
    125         68.851004   0.000000
    126         69.131009   0.000000
    127         69.319020   0.000000
    128         70.466532   0.000000
    129         70.770833   0.000000
    130         71.359547   0.000000
    131         71.359547   0.000000
    132         72.300255   0.000000
    133         72.300255   0.000000
    134         73.438034   0.000000
    135         73.759309   0.000000
    136         73.759309   0.000000
    137         74.041985   0.000000
    138         74.181028   0.000000
    139         74.181028   0.000000
    140         74.657443   0.000000
    141         75.585102   0.000000
    142         75.950629   0.000000
    143         75.950629   0.000000
    144         76.346335   0.000000
    145         76.454894   0.000000
    146         76.627117   0.000000
    147         77.500481   0.000000
    148         77.500481   0.000000
    149         78.100444   0.000000
    150         78.188292   0.000000
    151         79.102625   0.000000
    152         79.971601   0.000000
    153         80.377088   0.000000
    154         80.750644   0.000000
    155         80.750644   0.000000
    156         81.142027   0.000000
    157         81.269373   0.000000
    158         81.620859   0.000000
    159         81.620859   0.000000
    160         81.624511   0.000000
 
  0.3333333E+00  0.1276756E-14  0.1276756E-14  0.2777778E-01
      1        -43.646224   1.000000
      2        -22.052284   1.000000
      3        -21.763848   1.000000
      4        -21.763848   1.000000
      5        -21.682701   1.000000
      6        -12.833299   1.000000
      7        -12.434809   1.000000
      8        -11.853947   1.000000
      9         -6.929570   1.000000
     10         -6.929570   1.000000
     11         -6.847417   1.000000
     12          0.545783   1.000000
     13          1.805756   1.000000
     14          1.805756   1.000000
     15          2.017636   1.000000
     16          2.017636   1.000000
     17          2.030922   1.000000
     18          2.112657   1.000000
     19          3.110731   1.000000
     20          3.110731   1.000000
     21          6.983711   0.000000
     22          8.418991   0.000000
     23          8.418991   0.000000
     24          9.429846   0.000000
     25          9.556921   0.000000
     26         10.678718   0.000000
     27         11.027329   0.000000
     28         11.087998   0.000000
     29         11.993256   0.000000
     30         11.993256   0.000000
     31         12.889341   0.000000
     32         16.346834   0.000000
     33         17.736972   0.000000
     34         19.466392   0.000000
     35         19.466393   0.000000
     36         20.378855   0.000000
     37         22.142401   0.000000
     38         22.182032   0.000000
     39         22.677346   0.000000
     40         22.677347   0.000000
     41         22.865589   0.000000
     42         22.865589   0.000000
     43         23.937334   0.000000
     44         26.055496   0.000000
     45         26.055496   0.000000
     46         26.644104   0.000000
     47         27.336606   0.000000
     48         29.058663   0.000000
     49         29.058663   0.000000
     50         29.447823   0.000000
     51         31.745971   0.000000
     52         31.780983   0.000000
     53         32.569057   0.000000
     54         34.063593   0.000000
     55         34.063594   0.000000
     56         34.639690   0.000000
     57         35.114533   0.000000
     58         35.434967   0.000000
     59         35.434967   0.000000
     60         35.996100   0.000000
     61         36.135048   0.000000
     62         36.300856   0.000000
     63         36.407067   0.000000
     64         36.407068   0.000000
     65         36.905580   0.000000
     66         39.666706   0.000000
     67         40.195142   0.000000
     68         40.195142   0.000000
     69         40.233475   0.000000
     70         40.969868   0.000000
     71         40.969868   0.000000
     72         41.531685   0.000000
     73         41.789561   0.000000
     74         41.957724   0.000000
     75         42.291431   0.000000
     76         42.291431   0.000000
     77         42.984797   0.000000
     78         45.292996   0.000000
     79         45.292996   0.000000
     80         45.841631   0.000000
     81         47.553693   0.000000
     82         47.553693   0.000000
     83         47.610122   0.000000
     84         47.854055   0.000000
     85         48.416134   0.000000
     86         49.887177   0.000000
     87         49.887177   0.000000
     88         50.369346   0.000000
     89         50.827574   0.000000
     90         50.827574   0.000000
     91         50.922852   0.000000
     92         52.477006   0.000000
     93         52.695896   0.000000
     94         52.744333   0.000000
     95         53.407237   0.000000
     96         53.407237   0.000000
     97         54.286920   0.000000
     98         54.673322   0.000000
     99         54.673322   0.000000
    100         56.797477   0.000000
    101         57.409045   0.000000
    102         58.274742   0.000000
    103         59.109548   0.000000
    104         59.116952   0.000000
    105         59.116952   0.000000
    106         59.980940   0.000000
    107         59.980940   0.000000
    108         60.116271   0.000000
    109         60.304020   0.000000
    110         60.849145   0.000000
    111         60.884002   0.000000
    112         63.048160   0.000000
    113         63.048160   0.000000
    114         65.063080   0.000000
    115         65.063080   0.000000
    116         65.117940   0.000000
    117         65.614708   0.000000
    118         65.882058   0.000000
    119         65.882058   0.000000
    120         66.178099   0.000000
    121         66.440980   0.000000
    122         67.232324   0.000000
    123         67.690297   0.000000
    124         69.305356   0.000000
    125         69.305356   0.000000
    126         70.051483   0.000000
    127         70.606995   0.000000
    128         70.641507   0.000000
    129         70.750846   0.000000
    130         70.750846   0.000000
    131         71.894636   0.000000
    132         72.029405   0.000000
    133         72.029405   0.000000
    134         73.132407   0.000000
    135         73.599678   0.000000
    136         74.090042   0.000000
    137         74.090042   0.000000
    138         74.387188   0.000000
    139         74.709015   0.000000
    140         74.709015   0.000000
    141         74.977415   0.000000
    142         75.755176   0.000000
    143         75.966193   0.000000
    144         76.819046   0.000000
    145         76.991268   0.000000
    146         76.991269   0.000000
    147         77.981633   0.000000
    148         77.981633   0.000000
    149         78.523915   0.000000
    150         78.523915   0.000000
    151         78.564710   0.000000
    152         79.208764   0.000000
    153         79.845237   0.000000
    154         80.179267   0.000000
    155         80.250780   0.000000
    156         80.522018   0.000000
    157         80.522018   0.000000
    158         81.050865   0.000000
    159         82.182319   0.000000
    160         82.182319   0.000000
 
  0.5000000E+00  0.1276756E-14  0.1276756E-14  0.1388889E-01
      1        -43.645529   1.000000
      2        -22.106511   1.000000
      3        -21.762354   1.000000
      4        -21.762354   1.000000
      5        -21.666430   1.000000
      6        -12.884464   1.000000
      7        -12.429375   1.000000
      8        -11.609666   1.000000
      9         -6.913628   1.000000
     10         -6.913628   1.000000
     11         -6.804802   1.000000
     12         -0.020517   1.000000
     13          1.691059   1.000000
     14          1.691059   1.000000
     15          1.812415   1.000000
     16          1.880321   1.000000
     17          1.880321   1.000000
     18          1.967343   1.000000
     19          3.071627   1.000000
     20          3.071627   1.000000
     21          7.102855   0.000000
     22          9.071546   0.000000
     23          9.071546   0.000000
     24          9.882481   0.000000
     25         10.094619   0.000000
     26         10.659438   0.000000
     27         10.752857   0.000000
     28         11.882076   0.000000
     29         11.882076   0.000000
     30         12.012603   0.000000
     31         14.438910   0.000000
     32         14.601248   0.000000
     33         16.377887   0.000000
     34         19.786421   0.000000
     35         20.788864   0.000000
     36         20.788864   0.000000
     37         20.883640   0.000000
     38         20.883641   0.000000
     39         22.607816   0.000000
     40         23.152562   0.000000
     41         23.152562   0.000000
     42         23.928104   0.000000
     43         24.326630   0.000000
     44         24.944586   0.000000
     45         25.186237   0.000000
     46         25.186237   0.000000
     47         26.627758   0.000000
     48         28.687154   0.000000
     49         28.687154   0.000000
     50         29.710683   0.000000
     51         32.500651   0.000000
     52         32.832400   0.000000
     53         33.064823   0.000000
     54         33.255751   0.000000
     55         34.095819   0.000000
     56         34.375737   0.000000
     57         34.878367   0.000000
     58         34.878367   0.000000
     59         35.200571   0.000000
     60         35.610437   0.000000
     61         35.610438   0.000000
     62         36.213552   0.000000
     63         36.213552   0.000000
     64         37.120100   0.000000
     65         37.295658   0.000000
     66         40.202632   0.000000
     67         40.202632   0.000000
     68         40.846607   0.000000
     69         41.168762   0.000000
     70         41.650719   0.000000
     71         41.650719   0.000000
     72         41.723378   0.000000
     73         43.196131   0.000000
     74         43.196131   0.000000
     75         43.655335   0.000000
     76         43.672489   0.000000
     77         44.810171   0.000000
     78         44.936566   0.000000
     79         44.936566   0.000000
     80         45.155701   0.000000
     81         45.555065   0.000000
     82         46.011545   0.000000
     83         46.052963   0.000000
     84         46.052963   0.000000
     85         47.601944   0.000000
     86         47.710797   0.000000
     87         50.723615   0.000000
     88         50.723615   0.000000
     89         51.393437   0.000000
     90         52.047582   0.000000
     91         52.047582   0.000000
     92         52.983489   0.000000
     93         54.399179   0.000000
     94         54.399179   0.000000
     95         54.606278   0.000000
     96         54.689677   0.000000
     97         56.088062   0.000000
     98         56.088063   0.000000
     99         56.138976   0.000000
    100         56.182504   0.000000
    101         56.326736   0.000000
    102         56.696656   0.000000
    103         56.696656   0.000000
    104         56.791838   0.000000
    105         57.803175   0.000000
    106         58.479923   0.000000
    107         58.683853   0.000000
    108         59.898711   0.000000
    109         59.898711   0.000000
    110         60.023053   0.000000
    111         60.023053   0.000000
    112         60.561704   0.000000
    113         63.710214   0.000000
    114         63.710214   0.000000
    115         64.681699   0.000000
    116         64.713494   0.000000
    117         64.851775   0.000000
    118         66.349286   0.000000
    119         66.429856   0.000000
    120         67.390107   0.000000
    121         68.182734   0.000000
    122         68.344610   0.000000
    123         68.344610   0.000000
    124         69.024567   0.000000
    125         69.034202   0.000000
    126         69.034202   0.000000
    127         70.237502   0.000000
    128         71.243989   0.000000
    129         71.243989   0.000000
    130         71.499616   0.000000
    131         71.625298   0.000000
    132         71.625298   0.000000
    133         72.834597   0.000000
    134         73.270959   0.000000
    135         73.469183   0.000000
    136         74.805521   0.000000
    137         74.999379   0.000000
    138         75.152725   0.000000
    139         75.152725   0.000000
    140         75.755151   0.000000
    141         75.755151   0.000000
    142         75.988081   0.000000
    143         76.027877   0.000000
    144         76.027877   0.000000
    145         76.530167   0.000000
    146         77.146692   0.000000
    147         77.146692   0.000000
    148         77.183077   0.000000
    149         77.822793   0.000000
    150         78.330210   0.000000
    151         78.330210   0.000000
    152         79.490619   0.000000
    153         79.563150   0.000000
    154         79.696798   0.000000
    155         79.728007   0.000000
    156         79.791839   0.000000
    157         79.791839   0.000000
    158         82.061213   0.000000
    159         82.185270   0.000000
    160         82.505949   0.000000
 
  0.1666667E+00  0.1666667E+00  0.1276756E-14  0.5555556E-01
      1        -43.646920   1.000000
      2        -21.947464   1.000000
      3        -21.821835   1.000000
      4        -21.765348   1.000000
      5        -21.695055   1.000000
      6        -12.698178   1.000000
      7        -12.331067   1.000000
      8        -12.276206   1.000000
      9         -7.000172   1.000000
     10         -6.943159   1.000000
     11         -6.875076   1.000000
     12          1.433719   1.000000
     13          1.686878   1.000000
     14          1.876464   1.000000
     15          1.913615   1.000000
     16          2.179530   1.000000
     17          2.517001   1.000000
     18          2.635268   1.000000
     19          2.966425   1.000000
     20          3.110218   1.000000
     21          7.307412   0.000000
     22          7.371788   0.000000
     23          7.585162   0.000000
     24          9.029125   0.000000
     25          9.041654   0.000000
     26         10.129254   0.000000
     27         11.113596   0.000000
     28         11.506513   0.000000
     29         11.875291   0.000000
     30         12.012356   0.000000
     31         12.046564   0.000000
     32         17.440621   0.000000
     33         17.972573   0.000000
     34         18.549785   0.000000
     35         20.473730   0.000000
     36         21.040391   0.000000
     37         21.735613   0.000000
     38         21.800425   0.000000
     39         21.895915   0.000000
     40         22.497171   0.000000
     41         22.637840   0.000000
     42         23.929787   0.000000
     43         24.507274   0.000000
     44         25.991174   0.000000
     45         26.952327   0.000000
     46         27.182481   0.000000
     47         29.355369   0.000000
     48         29.733374   0.000000
     49         29.995856   0.000000
     50         30.326649   0.000000
     51         31.735801   0.000000
     52         31.950810   0.000000
     53         32.259323   0.000000
     54         32.385325   0.000000
     55         32.960418   0.000000
     56         33.145547   0.000000
     57         34.180268   0.000000
     58         34.548857   0.000000
     59         35.406326   0.000000
     60         35.884504   0.000000
     61         36.321356   0.000000
     62         36.826752   0.000000
     63         37.144681   0.000000
     64         37.446219   0.000000
     65         37.887107   0.000000
     66         38.104832   0.000000
     67         38.478742   0.000000
     68         39.387643   0.000000
     69         39.675837   0.000000
     70         40.250618   0.000000
     71         40.423680   0.000000
     72         40.607753   0.000000
     73         42.378684   0.000000
     74         42.505276   0.000000
     75         43.044605   0.000000
     76         43.497565   0.000000
     77         43.893672   0.000000
     78         44.720825   0.000000
     79         45.036964   0.000000
     80         45.824170   0.000000
     81         46.737423   0.000000
     82         46.884764   0.000000
     83         46.965516   0.000000
     84         47.945189   0.000000
     85         48.433340   0.000000
     86         49.720754   0.000000
     87         49.738296   0.000000
     88         49.939595   0.000000
     89         50.155915   0.000000
     90         50.186901   0.000000
     91         51.108378   0.000000
     92         51.300763   0.000000
     93         52.774988   0.000000
     94         53.079666   0.000000
     95         53.293301   0.000000
     96         53.914105   0.000000
     97         55.509666   0.000000
     98         55.935679   0.000000
     99         56.924677   0.000000
    100         56.977772   0.000000
    101         57.212746   0.000000
    102         57.238057   0.000000
    103         57.996821   0.000000
    104         58.367964   0.000000
    105         59.862350   0.000000
    106         60.257613   0.000000
    107         60.611437   0.000000
    108         61.325915   0.000000
    109         61.900941   0.000000
    110         61.936032   0.000000
    111         63.005210   0.000000
    112         63.676086   0.000000
    113         63.950739   0.000000
    114         64.216496   0.000000
    115         64.506674   0.000000
    116         65.040947   0.000000
    117         65.965820   0.000000
    118         66.181527   0.000000
    119         66.218443   0.000000
    120         66.266122   0.000000
    121         66.634974   0.000000
    122         67.526392   0.000000
    123         68.228395   0.000000
    124         68.910325   0.000000
    125         68.936972   0.000000
    126         69.063271   0.000000
    127         69.231153   0.000000
    128         69.679694   0.000000
    129         70.022024   0.000000
    130         70.413329   0.000000
    131         70.926146   0.000000
    132         72.046233   0.000000
    133         72.076109   0.000000
    134         72.529468   0.000000
    135         72.915834   0.000000
    136         73.062610   0.000000
    137         73.708863   0.000000
    138         73.838972   0.000000
    139         74.850556   0.000000
    140         75.040958   0.000000
    141         75.459034   0.000000
    142         75.577270   0.000000
    143         75.765536   0.000000
    144         76.193999   0.000000
    145         76.705526   0.000000
    146         76.999238   0.000000
    147         77.714822   0.000000
    148         77.839618   0.000000
    149         78.239371   0.000000
    150         79.195691   0.000000
    151         79.424191   0.000000
    152         80.419431   0.000000
    153         80.490190   0.000000
    154         80.625885   0.000000
    155         80.749504   0.000000
    156         80.935675   0.000000
    157         81.184341   0.000000