       N       E                     dE             d eps       ncg     rms          rms(c)
DAV:   1     0.103680143180E+02    0.10368E+02   -0.27996E+04  6720   0.274E+02
DAV:   2    -0.492425547756E+02   -0.59611E+02   -0.59611E+02  9760   0.380E+01
DAV:   3    -0.492648428069E+02   -0.22288E-01   -0.22288E-01  6400   0.915E-01
DAV:   4    -0.492648477469E+02   -0.49401E-05   -0.49401E-05 12800   0.114E-02
DAV:   5    -0.492648477469E+02   -0.45475E-12    0.11971E-11  6400   0.329E-06    0.289E+01
DAV:   6    -0.420355014077E+02    0.72293E+01   -0.62214E+01  9600   0.672E+00    0.136E+01
DAV:   7    -0.417320066781E+02    0.30349E+00   -0.21973E+00  8800   0.109E+00    0.777E+00
DAV:   8    -0.417005196948E+02    0.31487E-01   -0.47579E-01 10560   0.743E-01    0.115E+00
DAV:   9    -0.417025243983E+02   -0.20047E-02   -0.22694E-01  7840   0.408E-01    0.134E+00
DAV:  10    -0.416951122294E+02    0.74122E-02   -0.54039E-02  8960   0.190E-01    0.622E-02
DAV:  11    -0.416953130383E+02   -0.20081E-03   -0.37324E-04  8640   0.267E-02    0.129E-02
DAV:  12    -0.416953231357E+02   -0.10097E-04   -0.22683E-05  9280   0.607E-03    0.109E-02
DAV:  13    -0.416953232232E+02   -0.87491E-07   -0.53033E-06  7200   0.281E-03    0.135E-03
DAV:  14    -0.416953233177E+02   -0.94494E-07   -0.91157E-08  9120   0.384E-04
   1 F= -.41695323E+02 E0= -.41695323E+02  d E =-.416953E+02
       N       E                     dE             d eps       ncg     rms          rms(c)
DAV:   1    -0.428143678469E+02   -0.11190E+01   -0.33033E+01  8000   0.712E+00    0.102E+01
DAV:   2    -0.418249014496E+02    0.98947E+00   -0.45239E+00  6720   0.173E+00    0.344E+00
DAV:   3    -0.416895503623E+02    0.13535E+00   -0.87831E-01  7680   0.810E-01    0.114E+00
DAV:   4    -0.416791906716E+02    0.10360E-01   -0.10229E-01  7360   0.266E-01    0.662E-01
DAV:   5    -0.416896996935E+02   -0.10509E-01   -0.24218E-02  7520   0.136E-01    0.147E-01
DAV:   6    -0.416901356865E+02   -0.43599E-03   -0.62579E-04  8000   0.312E-02    0.293E-02
DAV:   7    -0.416901426583E+02   -0.69718E-05   -0.29033E-05  9120   0.721E-03    0.119E-02
DAV:   8    -0.416901458530E+02   -0.31947E-05   -0.73612E-06  6400   0.293E-03    0.199E-03
DAV:   9    -0.416901459231E+02   -0.70145E-07   -0.36672E-08  8960   0.229E-04
   2 F= -.41690146E+02 E0= -.41690146E+02  d E =0.517739E-02
       N       E                     dE             d eps       ncg     rms          rms(c)
DAV:   1    -0.420353915474E+02   -0.34525E+00   -0.90629E+00  7840   0.374E+00    0.540E+00
DAV:   2    -0.417680572770E+02    0.26733E+00   -0.12213E+00  7200   0.915E-01    0.171E+00
DAV:   3    -0.417297649965E+02    0.38292E-01   -0.19985E-01  7200   0.416E-01    0.547E-01
DAV:   4    -0.417268860249E+02    0.28790E-02   -0.24055E-02  7360   0.136E-01    0.361E-01
DAV:   5    -0.417294197290E+02   -0.25337E-02   -0.51896E-03  7040   0.591E-02    0.895E-02
DAV:   6    -0.417297019468E+02   -0.28222E-03   -0.28463E-04  9760   0.178E-02    0.161E-02
DAV:   7    -0.417297090752E+02   -0.71284E-05   -0.63290E-06  7200   0.350E-03    0.573E-03
DAV:   8    -0.417297089017E+02    0.17342E-06   -0.17006E-06  6720   0.140E-03    0.105E-03
DAV:   9    -0.417297091417E+02   -0.23996E-06   -0.83775E-08  7040   0.307E-04    0.428E-04
DAV:  10    -0.417297090872E+02    0.54507E-07   -0.24291E-08  7680   0.175E-04
   3 F= -.41729709E+02 E0= -.41729709E+02  d E =-.343858E-01
