 vasp.6.4.3 19Mar24 (build Jul 01 2024 12:12:31) complex                        
  
 executed on             LinuxIFC date 2025.11.29  17:48:09
 running  160 mpi-ranks, on    1 nodes
 distrk:  each k-point on  160 cores,    1 groups
 distr:  one band on NCORE=   1 cores,  160 groups


--------------------------------------------------------------------------------------------------------


 INCAR:
   SYSTEM = BaZrO3 SCF
   ENCUT = 600
   EDIFF = 1E-7
   EDIFFG = -0.01
   ISMEAR = 0
   SIGMA = 0.05
   IBRION = 2
   ISIF = 3
   NSW = 50
   PREC = Accurate
   GGA = PE
   LASPH = .TRUE.
   LREAL = Auto
   LWAVE = .TRUE.
   LCHARG = .TRUE.

 POTCAR:    PAW_PBE Ba_sv 06Sep2000               
 POTCAR:    PAW_PBE Zr_sv 04Jan2005               
 POTCAR:    PAW_PBE O 08Apr2002                   
 -----------------------------------------------------------------------------
|                                                                             |
|           W    W    AA    RRRRR   N    N  II  N    N   GGGG   !!!           |
|           W    W   A  A   R    R  NN   N  II  NN   N  G    G  !!!           |
|           W    W  A    A  R    R  N N  N  II  N N  N  G       !!!           |
|           W WW W  AAAAAA  RRRRR   N  N N  II  N  N N  G  GGG   !            |
|           WW  WW  A    A  R   R   N   NN  II  N   NN  G    G                |
|           W    W  A    A  R    R  N    N  II  N    N   GGGG   !!!           |
|                                                                             |
|     For optimal performance we recommend to set                             |
|       NCORE = 2 up to number-of-cores-per-socket                            |
|     NCORE specifies how many cores store one orbital (NPAR=cpu/NCORE).      |
|     This setting can greatly improve the performance of VASP for DFT.       |
|     The default, NCORE=1 might be grossly inefficient on modern             |
|     multi-core architectures or massively parallel machines. Do your        |
|     own testing! More info at https://www.vasp.at/wiki/index.php/NCORE      |
|     Unfortunately you need to use the default for GW and RPA                |
|     calculations (for HF NCORE is supported but not extensively tested      |
|     yet).                                                                   |
|                                                                             |
 -----------------------------------------------------------------------------

 POTCAR:    PAW_PBE Ba_sv 06Sep2000               
   SHA256 =  db99e82e473f9273fc04f241d4a23dc413358649e2d1724098d22351b75b003b Ba_sv/POTCAR          
   COPYR  = (c) Copyright 06Sep2000 Georg Kresse                                                    
   COPYR  = This file is part of the software VASP. Any use, copying, and all other rights are regul
   COPYR  = If you do not have a valid VASP license, you may not use, copy or distribute this file. 
   VRHFIN =Ba: 5s5p6s                                                                               
   LEXCH  = PE                                                                                      
   EATOM  =   700.8560 eV,   51.5115 Ry                                                             
                                                                                                    
   TITEL  = PAW_PBE Ba_sv 06Sep2000                                                                 
   LULTRA =        F    use ultrasoft PP ?                                                          
   IUNSCR =        1    unscreen: 0-lin 1-nonlin 2-no                                               
   RPACOR =    2.400    partial core radius                                                         
   POMASS =  137.327; ZVAL   =   10.000    mass and valenz                                          
   RCORE  =    2.800    outmost cutoff radius                                                       
   RWIGS  =    3.740; RWIGS  =    1.979    wigner-seitz radius (au A)                               
   ENMAX  =  187.181; ENMIN  =  140.386 eV                                                          
   RCLOC  =    2.516    cutoff for local pot                                                        
   LCOR   =        T    correct aug charges                                                         
   LPAW   =        T    paw PP                                                                      
   EAUG   =  351.165                                                                                
   DEXC   =    0.000                                                                                
   RMAX   =    2.865    core radius for proj-oper                                                   
   RAUG   =    1.300    factor for augmentation sphere                                              
   RDEP   =    2.976    radius for radial grids                                                     
   RDEPT  =    2.289    core radius for aug-charge                                                  
                                                                                                    
   Atomic configuration                                                                             
   13 entries                                                                                       
     n  l   j            E        occ.                                                              
     1  0  0.50    -37249.5946   2.0000                                                             
     2  0  0.50     -5887.1925   2.0000                                                             
     2  1  1.50     -5278.3977   6.0000                                                             
     3  0  0.50     -1242.7293   2.0000                                                             
     3  1  1.50     -1047.6609   6.0000                                                             
     3  2  2.50      -764.6158  10.0000                                                             
     4  0  0.50      -243.8228   2.0000                                                             
     4  1  1.50      -180.9218   6.0000                                                             
     4  2  2.50       -89.6477  10.0000                                                             
     5  0  0.50       -33.6549   2.0000                                                             
     6  0  0.50        -3.2247   1.9900                                                             
     5  1  1.50       -18.7193   6.0000                                                             
     5  2  2.50        -2.0115   0.0100                                                             
   Description                                                                                      
     l       E           TYP  RCUT    TYP  RCUT                                                     
     0    -33.6549039     23  2.800                                                                 
     0     -3.2246942     23  2.800                                                                 
     1    -18.7193050     23  2.700                                                                 
     1     27.2116520     23  2.700                                                                 
     2     -2.0115002     23  2.700                                                                 
     2      0.3057420     23  2.700                                                                 
  local pseudopotential read in
  partial core-charges read in
  partial kinetic energy density read in
  atomic valenz-charges read in
  non local Contribution for L=           0  read in
    real space projection operators read in
  non local Contribution for L=           0  read in
    real space projection operators read in
  non local Contribution for L=           1  read in
    real space projection operators read in
  non local Contribution for L=           1  read in
    real space projection operators read in
  non local Contribution for L=           2  read in
    real space projection operators read in
  non local Contribution for L=           2  read in
    real space projection operators read in
    PAW grid and wavefunctions read in
 
   number of l-projection  operators is LMAX  =           6
   number of lm-projection operators is LMMAX =          18
 
 POTCAR:    PAW_PBE Zr_sv 04Jan2005               
   SHA256 =  25aed69cb10325f9d37c5c68912b61a17387d1f8e4f1d804860ffa10c8a4bf76 Zr_sv/POTCAR          
   COPYR  = (c) Copyright 04Jan2005 Georg Kresse                                                    
   COPYR  = This file is part of the software VASP. Any use, copying, and all other rights are regul
   COPYR  = If you do not have a valid VASP license, you may not use, copy or distribute this file. 
   VRHFIN =Zr: 4s4p5s4d                                                                             
   LEXCH  = PE                                                                                      
   EATOM  =  1284.2219 eV,   94.3876 Ry                                                             
                                                                                                    
   TITEL  = PAW_PBE Zr_sv 04Jan2005                                                                 
   LULTRA =        F    use ultrasoft PP ?                                                          
   IUNSCR =        1    unscreen: 0-lin 1-nonlin 2-no                                               
   RPACOR =    2.200    partial core radius                                                         
   POMASS =   91.224; ZVAL   =   12.000    mass and valenz                                          
   RCORE  =    2.500    outmost cutoff radius                                                       
   RWIGS  =    3.070; RWIGS  =    1.625    wigner-seitz radius (au A)                               
   ENMAX  =  229.898; ENMIN  =  172.424 eV                                                          
   ICORE  =        3    local potential                                                             
   LCOR   =        T    correct aug charges                                                         
   LPAW   =        T    paw PP                                                                      
   EAUG   =  461.257                                                                                
   DEXC   =    0.000                                                                                
   RMAX   =    2.561    core radius for proj-oper                                                   
   RAUG   =    1.300    factor for augmentation sphere                                              
   RDEP   =    2.597    radius for radial grids                                                     
   RDEPT  =    2.007    core radius for aug-charge                                                  
                                                                                                    
   Atomic configuration                                                                             
   11 entries                                                                                       
     n  l   j            E        occ.                                                              
     1  0  0.50    -17820.0161   2.0000                                                             
     2  0  0.50     -2467.0882   2.0000                                                             
     2  1  1.50     -2199.6095   6.0000                                                             
     3  0  0.50      -402.4863   2.0000                                                             
     3  1  1.50      -315.3675   6.0000                                                             
     3  2  2.50      -172.4472  10.0000                                                             
     4  0  0.50       -52.4146   2.0000                                                             
     5  0  0.50        -3.8421   1.0000                                                             
     4  1  1.50       -30.5054   6.0000                                                             
     4  2  2.50        -2.3341   3.0000                                                             
     4  3  2.50        -1.3606   0.0000                                                             
   Description                                                                                      
     l       E           TYP  RCUT    TYP  RCUT                                                     
     0    -52.4145962     23  2.200                                                                 
     0     -3.8421270     23  2.500                                                                 
     1    -30.5053914     23  2.200                                                                 
     1     20.4087390     23  2.200                                                                 
     2     -2.3340816     23  2.500                                                                 
     2     -0.6120942     23  2.500                                                                 
     3     -4.0817478     23  2.500                                                                 
  local pseudopotential read in
  partial core-charges read in
  partial kinetic energy density read in
  atomic valenz-charges read in
  non local Contribution for L=           0  read in
    real space projection operators read in
  non local Contribution for L=           0  read in
    real space projection operators read in
  non local Contribution for L=           1  read in
    real space projection operators read in
  non local Contribution for L=           1  read in
    real space projection operators read in
  non local Contribution for L=           2  read in
    real space projection operators read in
  non local Contribution for L=           2  read in
    real space projection operators read in
    PAW grid and wavefunctions read in
 
   number of l-projection  operators is LMAX  =           6
   number of lm-projection operators is LMMAX =          18
 
 POTCAR:    PAW_PBE O 08Apr2002                   
   SHA256 =  818f92134a0a090dccd8ba1447fa70422a3b330e708bb4f08108d8ae51209ddf O/POTCAR              
   COPYR  = (c) Copyright 08Apr2002 Georg Kresse                                                    
   COPYR  = This file is part of the software VASP. Any use, copying, and all other rights are regul
   COPYR  = If you do not have a valid VASP license, you may not use, copy or distribute this file. 
   VRHFIN =O: s2p4                                                                                  
   LEXCH  = PE                                                                                      
   EATOM  =   432.3788 eV,   31.7789 Ry                                                             
                                                                                                    
   TITEL  = PAW_PBE O 08Apr2002                                                                     
   LULTRA =        F    use ultrasoft PP ?                                                          
   IUNSCR =        1    unscreen: 0-lin 1-nonlin 2-no                                               
   RPACOR =    1.200    partial core radius                                                         
   POMASS =   16.000; ZVAL   =    6.000    mass and valenz                                          
   RCORE  =    1.520    outmost cutoff radius                                                       
   RWIGS  =    1.550; RWIGS  =    0.820    wigner-seitz radius (au A)                               
   ENMAX  =  400.000; ENMIN  =  300.000 eV                                                          
   ICORE  =        2    local potential                                                             
   LCOR   =        T    correct aug charges                                                         
   LPAW   =        T    paw PP                                                                      
   EAUG   =  605.392                                                                                
   DEXC   =    0.000                                                                                
   RMAX   =    1.553    core radius for proj-oper                                                   
   RAUG   =    1.300    factor for augmentation sphere                                              
   RDEP   =    1.550    radius for radial grids                                                     
   RDEPT  =    1.329    core radius for aug-charge                                                  
                                                                                                    
   Atomic configuration                                                                             
    4 entries                                                                                       
     n  l   j            E        occ.                                                              
     1  0  0.50      -514.6923   2.0000                                                             
     2  0  0.50       -23.9615   2.0000                                                             
     2  1  0.50        -9.0305   4.0000                                                             
     3  2  1.50        -9.5241   0.0000                                                             
   Description                                                                                      
     l       E           TYP  RCUT    TYP  RCUT                                                     
     0    -23.9615318     23  1.200                                                                 
     0     -9.5240782     23  1.200                                                                 
     1     -9.0304911     23  1.520                                                                 
     1      8.1634956     23  1.520                                                                 
     2     -9.5240782      7  1.500                                                                 
  local pseudopotential read in
  partial core-charges read in
  partial kinetic energy density read in
  kinetic energy density of atom read in
  atomic valenz-charges read in
  non local Contribution for L=           0  read in
    real space projection operators read in
  non local Contribution for L=           0  read in
    real space projection operators read in
  non local Contribution for L=           1  read in
    real space projection operators read in
  non local Contribution for L=           1  read in
    real space projection operators read in
    PAW grid and wavefunctions read in
 
   number of l-projection  operators is LMAX  =           4
   number of lm-projection operators is LMMAX =           8
 
 -----------------------------------------------------------------------------
|                                                                             |
|               ----> ADVICE to this user running VASP <----                  |
|                                                                             |
|     You have a (more or less) 'small supercell' and for smaller cells       |
|     it is recommended to use the reciprocal-space projection scheme!        |
|     The real-space optimization is not efficient for small cells and it     |
|     is also less accurate ...                                               |
|     Therefore, set LREAL=.FALSE. in the INCAR file.                         |
|                                                                             |
 -----------------------------------------------------------------------------

 Optimization of the real space projectors (new method)

 maximal supplied QI-value         = 13.42
 optimisation between [QCUT,QGAM] = [ 12.48, 25.09] = [ 43.60,176.28] Ry 
 Optimized for a Real-space Cutoff    1.56 Angstroem

   l    n(q)    QCUT    max X(q) W(low)/X(q) W(high)/X(q)  e(spline) 
   0     12    12.478    13.244    0.30E-04    0.22E-04    0.29E-06
   0     12    12.478    14.240    0.46E-04    0.37E-04    0.41E-06
   1     11    12.478     4.828    0.23E-04    0.85E-05    0.32E-06
   1     11    12.478     3.934    0.89E-04    0.38E-05    0.96E-06
   2     11    12.478    87.714    0.11E-03    0.31E-03    0.12E-05
   2     11    12.478    59.874    0.10E-03    0.30E-03    0.11E-05
 Optimization of the real space projectors (new method)

 maximal supplied QI-value         = 15.12
 optimisation between [QCUT,QGAM] = [ 12.55, 25.10] = [ 44.09,176.36] Ry 
 Optimized for a Real-space Cutoff    1.43 Angstroem

   l    n(q)    QCUT    max X(q) W(low)/X(q) W(high)/X(q)  e(spline) 
   0     11    12.548    12.107    0.21E-04    0.74E-05    0.11E-06
   0     11    12.548     9.948    0.43E-04    0.23E-04    0.17E-06
   1     10    12.548     3.563    0.16E-04    0.23E-04    0.60E-07
   1     10    12.548     4.524    0.55E-04    0.36E-03    0.82E-06
   2     10    12.548    87.261    0.54E-04    0.12E-03    0.41E-06
   2     10    12.548    70.950    0.54E-04    0.12E-03    0.41E-06
 Optimization of the real space projectors (new method)

 maximal supplied QI-value         = 24.76
 optimisation between [QCUT,QGAM] = [ 12.38, 25.00] = [ 42.90,175.06] Ry 
 Optimized for a Real-space Cutoff    1.16 Angstroem

   l    n(q)    QCUT    max X(q) W(low)/X(q) W(high)/X(q)  e(spline) 
   0      9    12.378    20.381    0.16E-03    0.67E-05    0.31E-06
   0      9    12.378    15.268    0.17E-03    0.81E-05    0.33E-06
   1      8    12.378     5.964    0.20E-03    0.16E-03    0.30E-06
   1      8    12.378     5.382    0.18E-03    0.14E-03    0.26E-06
  PAW_PBE Ba_sv 06Sep2000               :
 energy of atom  1       EATOM= -700.8560
 kinetic energy error for atom=    0.0003 (will be added to EATOM!!)
  PAW_PBE Zr_sv 04Jan2005               :
 energy of atom  2       EATOM=-1284.2219
 kinetic energy error for atom=    0.0018 (will be added to EATOM!!)
  PAW_PBE O 08Apr2002                   :
 energy of atom  3       EATOM= -432.3788
 kinetic energy error for atom=    0.0168 (will be added to EATOM!!)
 
 
 POSCAR: Ba Zr O
  positions in cartesian coordinates
  velocities in cartesian coordinates
  No initial velocities read in


 exchange-correlation table for PE
   RHO(1)=    0.500       N(1)  =     2000
   RHO(2)=  100.500       N(2)  =     4000

 VTST: version 4.1, (05/19/21)

 CHAIN: initializing optimizer
 
 OPT: Using VASP Conjugate-Gradient optimizer
 CHAIN: Read ICHAIN            0
 
 POSCAR: Ba Zr O
  positions in cartesian coordinates
  velocities in cartesian coordinates
  No initial velocities read in
 


--------------------------------------------------------------------------------------------------------


 ion  position               nearest neighbor table
   1  0.000  0.000  0.000-   3 2.96   4 2.96   5 2.96   4 2.96   5 2.96   3 2.96   5 2.96   5 2.96
                             3 2.96   4 2.96   4 2.96   3 2.96   2 3.63   2 3.63   2 3.63   2 3.63
   2  0.500  0.500  0.500-   3 2.10   4 2.10   5 2.10   3 2.10   4 2.10   5 2.10   1 3.63   1 3.63
                             1 3.63   1 3.63   1 3.63   1 3.63   1 3.63   1 3.63
   3  0.500  0.500  0.000-   2 2.10   2 2.10   1 2.96   1 2.96   1 2.96   1 2.96
   4  0.500  0.000  0.500-   2 2.10   2 2.10   1 2.96   1 2.96   1 2.96   1 2.96
   5  0.000  0.500  0.500-   2 2.10   2 2.10   1 2.96   1 2.96   1 2.96   1 2.96
 
  LATTYP: Found a simple cubic cell.
 ALAT       =     4.1920000000
  
  Lattice vectors:
  
 A1 = (   4.1920000000,   0.0000000000,   0.0000000000)
 A2 = (   0.0000000000,   4.1920000000,   0.0000000000)
 A3 = (   0.0000000000,   0.0000000000,   4.1920000000)


Analysis of symmetry for initial positions (statically):
=====================================================================
 Subroutine PRICEL returns:
 Original cell was already a primitive cell.
 

 Routine SETGRP: Setting up the symmetry group for a 
 simple cubic supercell.


 Subroutine GETGRP returns: Found 48 space group operations
 (whereof 48 operations were pure point group operations)
 out of a pool of 48 trial point group operations.


The static configuration has the point symmetry O_h .


Analysis of symmetry for dynamics (positions and initial velocities):
=====================================================================
 Subroutine PRICEL returns:
 Original cell was already a primitive cell.
 

 Routine SETGRP: Setting up the symmetry group for a 
 simple cubic supercell.


 Subroutine GETGRP returns: Found 48 space group operations
 (whereof 48 operations were pure point group operations)
 out of a pool of 48 trial point group operations.


The dynamic configuration has the point symmetry O_h .


 Subroutine INISYM returns: Found 48 space group operations
 (whereof 48 operations are pure point group operations),
 and found     1 'primitive' translations


----------------------------------------------------------------------------------------

                                     Primitive cell                                     

  volume of cell :      73.6654

  direct lattice vectors                    reciprocal lattice vectors
     4.192000000  0.000000000  0.000000000     0.238549618  0.000000000  0.000000000
     0.000000000  4.192000000  0.000000000     0.000000000  0.238549618  0.000000000
     0.000000000  0.000000000  4.192000000     0.000000000  0.000000000  0.238549618

  length of vectors
     4.192000000  4.192000000  4.192000000     0.238549618  0.238549618  0.238549618

  position of ions in fractional coordinates (direct lattice)
     0.000000000  0.000000000  0.000000000
     0.500000000  0.500000000  0.500000000
     0.500000000  0.500000000  0.000000000
     0.500000000  0.000000000  0.500000000
     0.000000000  0.500000000  0.500000000

  ion indices of the primitive-cell ions
   primitive index   ion index
                 1           1
                 2           2
                 3           3
                 4           4
                 5           5

----------------------------------------------------------------------------------------

 
 
 KPOINTS: Automatic mesh                          

Automatic generation of k-mesh.
 Grid dimensions read from file:
 generate k-points for:    6    6    6

 Generating k-lattice:

  Cartesian coordinates                     Fractional coordinates (reciprocal lattice)
     0.039758270  0.000000000  0.000000000     0.166666667  0.000000000  0.000000000
     0.000000000  0.039758270  0.000000000     0.000000000  0.166666667  0.000000000
     0.000000000  0.000000000  0.039758270     0.000000000  0.000000000  0.166666667

  Length of vectors
     0.039758270  0.039758270  0.039758270

  Shift w.r.t. Gamma in fractional coordinates (k-lattice)
     0.000000000  0.000000000  0.000000000

 
 Subroutine IBZKPT returns following result:
 ===========================================
 
 Found     20 irreducible k-points:
 
 Following reciprocal coordinates:
            Coordinates               Weight
  0.000000  0.000000  0.000000      1.000000
  0.166667  0.000000  0.000000      6.000000
  0.333333  0.000000  0.000000      6.000000
  0.500000  0.000000  0.000000      3.000000
  0.166667  0.166667  0.000000     12.000000
  0.333333  0.166667  0.000000     24.000000
  0.500000  0.166667  0.000000     12.000000
  0.333333  0.333333  0.000000     12.000000
  0.500000  0.333333  0.000000     12.000000
  0.500000  0.500000  0.000000      3.000000
  0.166667  0.166667  0.166667      8.000000
  0.333333  0.166667  0.166667     24.000000
  0.500000  0.166667  0.166667     12.000000
  0.333333  0.333333  0.166667     24.000000
  0.500000  0.333333  0.166667     24.000000
  0.500000  0.500000  0.166667      6.000000
  0.333333  0.333333  0.333333      8.000000
  0.500000  0.333333  0.333333     12.000000
  0.500000  0.500000  0.333333      6.000000
  0.500000  0.500000  0.500000      1.000000
 
 Following cartesian coordinates:
            Coordinates               Weight
  0.000000  0.000000  0.000000      1.000000
  0.039758  0.000000  0.000000      6.000000
  0.079517  0.000000  0.000000      6.000000
  0.119275  0.000000  0.000000      3.000000
  0.039758  0.039758  0.000000     12.000000
  0.079517  0.039758  0.000000     24.000000
  0.119275  0.039758  0.000000     12.000000
  0.079517  0.079517  0.000000     12.000000
  0.119275  0.079517  0.000000     12.000000
  0.119275  0.119275  0.000000      3.000000
  0.039758  0.039758  0.039758      8.000000
  0.079517  0.039758  0.039758     24.000000
  0.119275  0.039758  0.039758     12.000000
  0.079517  0.079517  0.039758     24.000000
  0.119275  0.079517  0.039758     24.000000
  0.119275  0.119275  0.039758      6.000000
  0.079517  0.079517  0.079517      8.000000
  0.119275  0.079517  0.079517     12.000000
  0.119275  0.119275  0.079517      6.000000
  0.119275  0.119275  0.119275      1.000000
 


--------------------------------------------------------------------------------------------------------




 Dimension of arrays:
   k-points           NKPTS =     20   k-points in BZ     NKDIM =     20   number of bands    NBANDS=    160
   number of dos      NEDOS =    301   number of ions     NIONS =      5
   non local maximal  LDIM  =      6   non local SUM 2l+1 LMDIM =     18
   total plane-waves  NPLWV =  46656
   max r-space proj   IRMAX =  10127   max aug-charges    IRDMAX=  39840
   dimension x,y,z NGX =    36 NGY =   36 NGZ =   36
   dimension x,y,z NGXF=    72 NGYF=   72 NGZF=   72
   support grid    NGXF=    72 NGYF=   72 NGZF=   72
   ions per type =               1   1   3
   NGX,Y,Z   is equivalent  to a cutoff of  14.28, 14.28, 14.28 a.u.
   NGXF,Y,Z  is equivalent  to a cutoff of  28.55, 28.55, 28.55 a.u.

 SYSTEM =  BaZrO3 SCF                              
 POSCAR =  Ba Zr O                                 

 Startparameter for this run:
   NWRITE =      2    write-flag & timer
   PREC   = accura    normal or accurate (medium, high low for compatibility)
   ISTART =      0    job   : 0-new  1-cont  2-samecut
   ICHARG =      2    charge: 1-file 2-atom 10-const
   ISPIN  =      1    spin polarized calculation?
   LNONCOLLINEAR =      F non collinear calculations
   LSORBIT =      F    spin-orbit coupling
   INIWAV =      1    electr: 0-lowe 1-rand  2-diag
   LASPH  =      T    aspherical Exc in radial PAW
 Electronic Relaxation 1
   ENCUT  =  600.0 eV  44.10 Ry    6.64 a.u.   8.37  8.37  8.37*2*pi/ulx,y,z
   ENINI  =  600.0     initial cutoff
   ENAUG  =  605.4 eV  augmentation charge cutoff
   NELM   =     60;   NELMIN=  2; NELMDL= -5     # of ELM steps 
   EDIFF  = 0.1E-06   stopping-criterion for ELM
   LREAL  =      T    real-space projection
   NLSPLINE    = F    spline interpolate recip. space projectors
   LCOMPAT=      F    compatible to vasp.4.4
   GGA_COMPAT  = T    GGA compatible to vasp.4.4-vasp.4.6
   LMAXPAW     = -100 max onsite density
   LMAXMIX     =    2 max onsite mixed and CHGCAR
   VOSKOWN=      0    Vosko Wilk Nusair interpolation
   ROPT   =   -0.00025  -0.00025  -0.00025
 Ionic relaxation
   EDIFFG = -.1E-01   stopping-criterion for IOM
   NSW    =     50    number of steps for IOM
   NBLOCK =      1;   KBLOCK =     50    inner block; outer block 
   IBRION =      2    ionic relax: 0-MD 1-quasi-New 2-CG
   NFREE  =      1    steps in history (QN), initial steepest desc. (CG)
   ISIF   =      3    stress and relaxation
   IWAVPR =     11    prediction:  0-non 1-charg 2-wave 3-comb
   ISYM   =      2    0-nonsym 1-usesym 2-fastsym
   LCORR  =      T    Harris-Foulkes like correction to forces

   POTIM  = 0.5000    time-step for ionic-motion
   TEIN   =    0.0    initial temperature
   TEBEG  =    0.0;   TEEND  =   0.0 temperature during run
   SMASS  =  -3.00    Nose mass-parameter (am)
   estimated Nose-frequenzy (Omega)   =  0.10E-29 period in steps = 0.13E+47 mass=  -0.402E-27a.u.
   SCALEE = 1.0000    scale energy and forces
   NPACO  =    256;   APACO  = 10.0  distance and # of slots for P.C.
   PSTRESS=    0.0 pullay stress

  Mass of Ions in am
   POMASS = 137.33 91.22 16.00
  Ionic Valenz
   ZVAL   =  10.00 12.00  6.00
  Atomic Wigner-Seitz radii
   RWIGS  =  -1.00 -1.00 -1.00
  virtual crystal weights 
   VCA    =   1.00  1.00  1.00
   NELECT =      40.0000    total number of electrons
   NUPDOWN=      -1.0000    fix difference up-down

 DOS related values:
   EMIN   =  10.00;   EMAX   =-10.00  energy-range for DOS
   EFERMI =   0.00;   METHOD = LEGACY      
   ISMEAR =     0;   SIGMA  =   0.05  broadening in eV -4-tet -1-fermi 0-gaus

 Electronic relaxation 2 (details)
   IALGO  =     38    algorithm
   LDIAG  =      T    sub-space diagonalisation (order eigenvalues)
   LSUBROT=      F    optimize rotation matrix (better conditioning)
   TURBO    =      0    0=normal 1=particle mesh
   IRESTART =      0    0=no restart 2=restart with 2 vectors
   NREBOOT  =      0    no. of reboots
   NMIN     =      0    reboot dimension
   EREF     =   0.00    reference energy to select bands
   IMIX   =      4    mixing-type and parameters
     AMIX     =   0.40;   BMIX     =  1.00
     AMIX_MAG =   1.60;   BMIX_MAG =  1.00
     AMIN     =   0.10
     WC   =   100.;   INIMIX=   1;  MIXPRE=   1;  MAXMIX= -45

 Intra band minimization:
   WEIMIN = 0.0010     energy-eigenvalue tresh-hold
   EBREAK =  0.16E-09  absolut break condition
   DEPER  =   0.30     relativ break condition  

   TIME   =   0.40     timestep for ELM

  volume/ion in A,a.u.               =      14.73        99.42
  Fermi-wavevector in a.u.,A,eV,Ry     =   1.335591  2.523901 24.270125  1.783804
  Thomas-Fermi vector in A             =   2.464284
 
 Write flags
   LWAVE        =      T    write WAVECAR
   LDOWNSAMPLE  =      F    k-point downsampling of WAVECAR
   LCHARG       =      T    write CHGCAR
   LVTOT        =      F    write LOCPOT, total local potential
   LVHAR        =      F    write LOCPOT, Hartree potential only
   WRT_POTENTIAL= false  ! write potential to hdf5 file
   LELF         =      F    write electronic localiz. function (ELF)
   LORBIT       =      0    0 simple, 1 ext, 2 COOP (PROOUT), +10 PAW based schemes


 Dipole corrections
   LMONO      =      F    monopole corrections only (constant potential shift)
   LDIPOL     =      F    correct potential (dipole corrections)
   IDIPOL     =      0    1-x, 2-y, 3-z, 4-all directions 
   EPSILON    =  1.0000000 bulk dielectric constant
   LVACPOTAV  =      F  vacuum potentials using an averaging scheme for the charge density
   VACPOTFLAT =  0.1000000 required flatness to determine vacuum potential
 Exchange correlation treatment:
   GGA     = PE    functional components
   XC_C    = 1    coefficients multiplying the functional components
   LIBXC   =     F    Libxc                    
   VOSKOWN =     0    Vosko Wilk Nusair interpolation
   LHFCALC =     F    Hartree Fock is set to
   LHFONE  =     F    Hartree Fock one center treatment
   AEXX    =    0.0000 exact exchange contribution

 Parameters of functionals:
   PE:
     No parameter
 
 Van der Waals corrections
   IVDW    =     0    specifies the selected vdW correction

 Linear response parameters
   LEPSILON=     F    determine dielectric tensor
   LRPA    =     F    only Hartree local field effects (RPA)
   LNABLA  =     F    use nabla operator in PAW spheres
   LVEL    =     F    velocity operator in full k-point grid
   CSHIFT  =0.1000    complex shift for real part using Kramers Kronig
   OMEGAMAX=  -1.0    maximum frequency
   DEG_THRESHOLD= 0.2000000E-02 threshold for treating states as degnerate
   RTIME   =   -0.100 relaxation time in fs
  (WPLASMAI=    0.000 imaginary part of plasma frequency in eV, 0.658/RTIME)
   DFIELD  = 0.0000000 0.0000000 0.0000000 field for delta impulse in time
 
  Optional k-point grid parameters
   LKPOINTS_OPT  =     F    use optional k-point grid
   KPOINTS_OPT_MODE=     1    mode for optional k-point grid
 
 Orbital magnetization related:
   ORBITALMAG=     F  switch on orbital magnetization
   LCHIMAG   =     F  perturbation theory with respect to B field
   DQ        =  0.001000  dq finite difference perturbation B field
   LLRAUG    =     F  two centre corrections for induced B field
   LBONE     =     F  B-component reconstruction in AE one-centre
   LVGVCALC  =     T  calculate vGv susceptibility
   LVGVAPPL  =     F  apply vGv susceptibility instead of pGv for G=0

 Random number generation:
   RANDOM_GENERATOR = DEFAULT
   PCG_SEED         = not used


--------------------------------------------------------------------------------------------------------


 conjugate gradient relaxation of ions
 charge density and potential will be updated during run
 non-spin polarized calculation
 Variant of blocked Davidson
 Davidson routine will perform the subspace rotation
 perform sub-space diagonalisation
    after iterative eigenvector-optimisation
 modified Broyden-mixing scheme, WC =      100.0
 initial mixing is a Kerker type mixing with AMIX =  0.4000 and BMIX =      1.0000
 Hartree-type preconditioning will be used
 using additional bands          140
 real space projection scheme for non local part
 use partial core corrections
 calculate Harris-corrections to forces 
   (improved forces if not selfconsistent)
 use gradient corrections 
 use of overlap-Matrix (Vanderbilt PP)
 Gauss-broadening in eV      SIGMA  =   0.05


--------------------------------------------------------------------------------------------------------


  energy-cutoff  :      600.00
  volume of cell :       73.67
      direct lattice vectors                 reciprocal lattice vectors
     4.192000000  0.000000000  0.000000000     0.238549618  0.000000000  0.000000000
     0.000000000  4.192000000  0.000000000     0.000000000  0.238549618  0.000000000
     0.000000000  0.000000000  4.192000000     0.000000000  0.000000000  0.238549618

  length of vectors
     4.192000000  4.192000000  4.192000000     0.238549618  0.238549618  0.238549618


 
 k-points in units of 2pi/SCALE and weight: Automatic mesh                          
   0.00000000  0.00000000  0.00000000       0.005
   0.03975827  0.00000000  0.00000000       0.028
   0.07951654  0.00000000  0.00000000       0.028
   0.11927481  0.00000000  0.00000000       0.014
   0.03975827  0.03975827  0.00000000       0.056
   0.07951654  0.03975827  0.00000000       0.111
   0.11927481  0.03975827  0.00000000       0.056
   0.07951654  0.07951654  0.00000000       0.056
   0.11927481  0.07951654  0.00000000       0.056
   0.11927481  0.11927481  0.00000000       0.014
   0.03975827  0.03975827  0.03975827       0.037
   0.07951654  0.03975827  0.03975827       0.111
   0.11927481  0.03975827  0.03975827       0.056
   0.07951654  0.07951654  0.03975827       0.111
   0.11927481  0.07951654  0.03975827       0.111
   0.11927481  0.11927481  0.03975827       0.028
   0.07951654  0.07951654  0.07951654       0.037
   0.11927481  0.07951654  0.07951654       0.056
   0.11927481  0.11927481  0.07951654       0.028
   0.11927481  0.11927481  0.11927481       0.005
 
 k-points in reciprocal lattice and weights: Automatic mesh                          
   0.00000000  0.00000000  0.00000000       0.005
   0.16666667  0.00000000  0.00000000       0.028
   0.33333333  0.00000000  0.00000000       0.028
   0.50000000  0.00000000  0.00000000       0.014
   0.16666667  0.16666667  0.00000000       0.056
   0.33333333  0.16666667  0.00000000       0.111
   0.50000000  0.16666667  0.00000000       0.056
   0.33333333  0.33333333  0.00000000       0.056
   0.50000000  0.33333333  0.00000000       0.056
   0.50000000  0.50000000  0.00000000       0.014
   0.16666667  0.16666667  0.16666667       0.037
   0.33333333  0.16666667  0.16666667       0.111
   0.50000000  0.16666667  0.16666667       0.056
   0.33333333  0.33333333  0.16666667       0.111
   0.50000000  0.33333333  0.16666667       0.111
   0.50000000  0.50000000  0.16666667       0.028
   0.33333333  0.33333333  0.33333333       0.037
   0.50000000  0.33333333  0.33333333       0.056
   0.50000000  0.50000000  0.33333333       0.028
   0.50000000  0.50000000  0.50000000       0.005
 
 position of ions in fractional coordinates (direct lattice) 
   0.00000000  0.00000000  0.00000000
   0.50000000  0.50000000  0.50000000
   0.50000000  0.50000000  0.00000000
   0.50000000  0.00000000  0.50000000
   0.00000000  0.50000000  0.50000000
 
 position of ions in cartesian coordinates  (Angst):
   0.00000000  0.00000000  0.00000000
   2.09600000  2.09600000  2.09600000
   2.09600000  2.09600000  0.00000000
   2.09600000  0.00000000  2.09600000
   0.00000000  2.09600000  2.09600000
 


--------------------------------------------------------------------------------------------------------


 k-point     1 :   0.0000 0.0000 0.0000  plane waves:    2517
 k-point     2 :   0.1667 0.0000 0.0000  plane waves:    2473
 k-point     3 :   0.3333 0.0000 0.0000  plane waves:    2457
 k-point     4 :   0.5000 0.0000 0.0000  plane waves:    2416
 k-point     5 :   0.1667 0.1667 0.0000  plane waves:    2464
 k-point     6 :   0.3333 0.1667 0.0000  plane waves:    2444
 k-point     7 :   0.5000 0.1667 0.0000  plane waves:    2468
 k-point     8 :   0.3333 0.3333 0.0000  plane waves:    2470
 k-point     9 :   0.5000 0.3333 0.0000  plane waves:    2476
 k-point    10 :   0.5000 0.5000 0.0000  plane waves:    2464
 k-point    11 :   0.1667 0.1667 0.1667  plane waves:    2479
 k-point    12 :   0.3333 0.1667 0.1667  plane waves:    2452
 k-point    13 :   0.5000 0.1667 0.1667  plane waves:    2456
 k-point    14 :   0.3333 0.3333 0.1667  plane waves:    2456
 k-point    15 :   0.5000 0.3333 0.1667  plane waves:    2458
 k-point    16 :   0.5000 0.5000 0.1667  plane waves:    2456
 k-point    17 :   0.3333 0.3333 0.3333  plane waves:    2455
 k-point    18 :   0.5000 0.3333 0.3333  plane waves:    2428
 k-point    19 :   0.5000 0.5000 0.3333  plane waves:    2444
 k-point    20 :   0.5000 0.5000 0.5000  plane waves:    2440

 maximum and minimum number of plane-waves per node :      2517     2416

 maximum number of plane-waves:      2517
 maximum index in each direction: 
   IXMAX=    8   IYMAX=    8   IZMAX=    8
   IXMIN=   -8   IYMIN=   -8   IZMIN=   -8


 serial   3D FFT for wavefunctions
 parallel 3D FFT for charge:
    minimum data exchange during FFTs selected (reduces bandwidth)


 total amount of memory used by VASP MPI-rank0    38001. kBytes
=======================================================================

   base      :      30000. kBytes
   nonlr-proj:       4430. kBytes
   fftplans  :        399. kBytes
   grid      :       2225. kBytes
   one-center:         77. kBytes
   wavefun   :        870. kBytes
 
     INWAV:  cpu time      0.0000: real time      0.0000
 Broyden mixing: mesh for mixing (old mesh)
   NGX = 17   NGY = 17   NGZ = 17
  (NGX  = 72   NGY  = 72   NGZ  = 72)
  gives a total of   4913 points

 initial charge density was supplied:
 charge density of overlapping atoms calculated
 number of electron      40.0000000 magnetization 
 keeping initial charge density in first step


--------------------------------------------------------------------------------------------------------


 Maximum index for non-local projection operator         9771
 Maximum index for augmentation-charges         1369 (set IRDMAX)


--------------------------------------------------------------------------------------------------------


 First call to EWALD:  gamma=   0.423
 Maximum number of real-space cells 3x 3x 3
 Maximum number of reciprocal cells 3x 3x 3

    FEWALD:  cpu time      0.0043: real time      0.0044


--------------------------------------- Ionic step        1  -------------------------------------------




--------------------------------------- Iteration      1(   1)  ---------------------------------------


    POTLOK:  cpu time      0.0289: real time      0.0455
    SETDIJ:  cpu time      0.0983: real time      0.1001
     EDDAV:  cpu time      7.7647: real time      8.0031
       DOS:  cpu time      0.0107: real time      0.0116
    --------------------------------------------
      LOOP:  cpu time      7.9025: real time      8.1604

 eigenvalue-minimisations  :  6720
 total energy-change (2. order) : 0.1036801E+02  (-0.2799604E+04)
 number of electron      40.0000000 magnetization 
 augmentation part       40.0000000 magnetization 

 Free energy of the ion-electron system (eV)
  ---------------------------------------------------
  alpha Z        PSCENC =       240.34259355
  Ewald energy   TEWEN  =     -2693.37944630
  -Hartree energ DENC   =      -682.79388567
  -exchange      EXHF   =         0.00000000
  -V(xc)+E(xc)   XCENC  =       159.34887558
  PAW double counting   =      2561.05225630    -2544.85325127
  entropy T*S    EENTRO =        -0.00000000
  eigenvalues    EBANDS =      -311.51080917
  atomic energy  EATOM  =      3282.16168129
  Solvation  Ediel_sol  =         0.00000000
  ---------------------------------------------------
  free energy    TOTEN  =        10.36801432 eV

  energy without entropy =       10.36801432  energy(sigma->0) =       10.36801432


--------------------------------------------------------------------------------------------------------




--------------------------------------- Iteration      1(   2)  ---------------------------------------


     EDDAV:  cpu time     16.6620: real time     16.8046
       DOS:  cpu time      0.0023: real time      0.0023
    --------------------------------------------
      LOOP:  cpu time     16.6643: real time     16.8068

 eigenvalue-minimisations  :  9760
 total energy-change (2. order) :-0.5961057E+02  (-0.5961057E+02)
 number of electron      40.0000000 magnetization 
 augmentation part       40.0000000 magnetization 

 Free energy of the ion-electron system (eV)
  ---------------------------------------------------
  alpha Z        PSCENC =       240.34259355
  Ewald energy   TEWEN  =     -2693.37944630
  -Hartree energ DENC   =      -682.79388567
  -exchange      EXHF   =         0.00000000
  -V(xc)+E(xc)   XCENC  =       159.34887558
  PAW double counting   =      2561.05225630    -2544.85325127
  entropy T*S    EENTRO =        -0.00000000
  eigenvalues    EBANDS =      -371.12137826
  atomic energy  EATOM  =      3282.16168129
  Solvation  Ediel_sol  =         0.00000000
  ---------------------------------------------------
  free energy    TOTEN  =       -49.24255478 eV

  energy without entropy =      -49.24255478  energy(sigma->0) =      -49.24255478


--------------------------------------------------------------------------------------------------------




--------------------------------------- Iteration      1(   3)  ---------------------------------------


     EDDAV:  cpu time      6.8584: real time      6.9212
       DOS:  cpu time      0.0015: real time      0.0015
    --------------------------------------------
      LOOP:  cpu time      6.8600: real time      6.9227

 eigenvalue-minimisations  :  6400
 total energy-change (2. order) :-0.2228803E-01  (-0.2228803E-01)
 number of electron      40.0000000 magnetization 
 augmentation part       40.0000000 magnetization 

 Free energy of the ion-electron system (eV)
  ---------------------------------------------------
  alpha Z        PSCENC =       240.34259355
  Ewald energy   TEWEN  =     -2693.37944630
  -Hartree energ DENC   =      -682.79388567
  -exchange      EXHF   =         0.00000000
  -V(xc)+E(xc)   XCENC  =       159.34887558
  PAW double counting   =      2561.05225630    -2544.85325127
  entropy T*S    EENTRO =        -0.00000000
  eigenvalues    EBANDS =      -371.14366629
  atomic energy  EATOM  =      3282.16168129
  Solvation  Ediel_sol  =         0.00000000
  ---------------------------------------------------
  free energy    TOTEN  =       -49.26484281 eV

  energy without entropy =      -49.26484281  energy(sigma->0) =      -49.26484281


--------------------------------------------------------------------------------------------------------




--------------------------------------- Iteration      1(   4)  ---------------------------------------


     EDDAV:  cpu time     32.5047: real time     32.7813
       DOS:  cpu time      0.0018: real time      0.0018
    --------------------------------------------
      LOOP:  cpu time     32.5065: real time     32.7830

 eigenvalue-minimisations  : 12800
 total energy-change (2. order) :-0.4940057E-05  (-0.4940055E-05)
 number of electron      40.0000000 magnetization 
 augmentation part       40.0000000 magnetization 

 Free energy of the ion-electron system (eV)
  ---------------------------------------------------
  alpha Z        PSCENC =       240.34259355
  Ewald energy   TEWEN  =     -2693.37944630
  -Hartree energ DENC   =      -682.79388567
  -exchange      EXHF   =         0.00000000
  -V(xc)+E(xc)   XCENC  =       159.34887558
  PAW double counting   =      2561.05225630    -2544.85325127
  entropy T*S    EENTRO =        -0.00000000
  eigenvalues    EBANDS =      -371.14367123
  atomic energy  EATOM  =      3282.16168129
  Solvation  Ediel_sol  =         0.00000000
  ---------------------------------------------------
  free energy    TOTEN  =       -49.26484775 eV

  energy without entropy =      -49.26484775  energy(sigma->0) =      -49.26484775


--------------------------------------------------------------------------------------------------------




--------------------------------------- Iteration      1(   5)  ---------------------------------------


     EDDAV:  cpu time      7.1493: real time      7.2188
       DOS:  cpu time      0.0013: real time      0.0013
    CHARGE:  cpu time      0.0296: real time      0.0308
    MIXING:  cpu time      0.0112: real time      0.0125
    --------------------------------------------
      LOOP:  cpu time      7.1913: real time      7.2634

 eigenvalue-minimisations  :  6400
 total energy-change (2. order) :-0.4547474E-12  ( 0.1197054E-11)
 number of electron      40.0000012 magnetization 
 augmentation part        1.1301864 magnetization 

 Broyden mixing:
  rms(total) = 0.28888E+01    rms(broyden)= 0.28887E+01
  rms(prec ) = 0.45993E+01
  weight for this iteration     100.00

 Free energy of the ion-electron system (eV)
  ---------------------------------------------------
  alpha Z        PSCENC =       240.34259355
  Ewald energy   TEWEN  =     -2693.37944630
  -Hartree energ DENC   =      -682.79388567
  -exchange      EXHF   =         0.00000000
  -V(xc)+E(xc)   XCENC  =       159.34887558
  PAW double counting   =      2561.05225630    -2544.85325127
  entropy T*S    EENTRO =        -0.00000000
  eigenvalues    EBANDS =      -371.14367123
  atomic energy  EATOM  =      3282.16168129
  Solvation  Ediel_sol  =         0.00000000
  ---------------------------------------------------
  free energy    TOTEN  =       -49.26484775 eV

  energy without entropy =      -49.26484775  energy(sigma->0) =      -49.26484775


--------------------------------------------------------------------------------------------------------




--------------------------------------- Iteration      1(   6)  ---------------------------------------


    POTLOK:  cpu time      0.0302: real time      0.0395
    SETDIJ:  cpu time      0.0850: real time      0.0856
     EDDAV:  cpu time     18.3207: real time     18.4652
       DOS:  cpu time      0.0021: real time      0.0021
    CHARGE:  cpu time      0.0163: real time      0.0165
    MIXING:  cpu time      0.0021: real time      0.0723
    --------------------------------------------
      LOOP:  cpu time     18.4564: real time     18.6813

 eigenvalue-minimisations  :  9600
 total energy-change (2. order) : 0.7229346E+01  (-0.6221442E+01)
 number of electron      40.0000009 magnetization 
 augmentation part        0.3052859 magnetization 

 Broyden mixing:
  rms(total) = 0.13580E+01    rms(broyden)= 0.13578E+01
  rms(prec ) = 0.16145E+01
  weight for this iteration     100.00

 eigenvalues of (default mixing * dielectric matrix)
  average eigenvalue GAMMA=   1.0933
  1.0933

 Free energy of the ion-electron system (eV)
  ---------------------------------------------------
  alpha Z        PSCENC =       240.34259355
  Ewald energy   TEWEN  =     -2693.37944630
  -Hartree energ DENC   =      -721.13740310
  -exchange      EXHF   =         0.00000000
  -V(xc)+E(xc)   XCENC  =       162.45144679
  PAW double counting   =      3303.38546365    -3291.82989972
  entropy T*S    EENTRO =        -0.00000000
  eigenvalues    EBANDS =      -324.02993758
  atomic energy  EATOM  =      3282.16168129
  Solvation  Ediel_sol  =         0.00000000
  ---------------------------------------------------
  free energy    TOTEN  =       -42.03550141 eV

  energy without entropy =      -42.03550141  energy(sigma->0) =      -42.03550141


--------------------------------------------------------------------------------------------------------




--------------------------------------- Iteration      1(   7)  ---------------------------------------


    POTLOK:  cpu time      0.0347: real time      0.0460
    SETDIJ:  cpu time      0.0860: real time      0.0865
     EDDAV:  cpu time     15.3598: real time     15.4770
       DOS:  cpu time      0.0021: real time      0.0021
    CHARGE:  cpu time      0.0162: real time      0.0164
    MIXING:  cpu time      0.0034: real time      0.0308
    --------------------------------------------
      LOOP:  cpu time     15.5021: real time     15.6587

 eigenvalue-minimisations  :  8800
 total energy-change (2. order) : 0.3034947E+00  (-0.2197251E+00)
 number of electron      40.0000010 magnetization 
 augmentation part        0.4473234 magnetization 

 Broyden mixing:
  rms(total) = 0.77739E+00    rms(broyden)= 0.77739E+00
  rms(prec ) = 0.87294E+00
  weight for this iteration     100.00

 eigenvalues of (default mixing * dielectric matrix)
  average eigenvalue GAMMA=   1.5501
  0.8334  2.2669

 Free energy of the ion-electron system (eV)
  ---------------------------------------------------
  alpha Z        PSCENC =       240.34259355
  Ewald energy   TEWEN  =     -2693.37944630
  -Hartree energ DENC   =      -709.40603942
  -exchange      EXHF   =         0.00000000
  -V(xc)+E(xc)   XCENC  =       161.64458544
  PAW double counting   =      3778.88131510    -3766.56778410
  entropy T*S    EENTRO =        -0.00000000
  eigenvalues    EBANDS =      -335.40891225
  atomic energy  EATOM  =      3282.16168129
  Solvation  Ediel_sol  =         0.00000000
  ---------------------------------------------------
  free energy    TOTEN  =       -41.73200668 eV

  energy without entropy =      -41.73200668  energy(sigma->0) =      -41.73200668


--------------------------------------------------------------------------------------------------------




--------------------------------------- Iteration      1(   8)  ---------------------------------------


    POTLOK:  cpu time      0.0285: real time      0.0421
    SETDIJ:  cpu time      0.0852: real time      0.0859
     EDDAV:  cpu time     22.1475: real time     22.3128
       DOS:  cpu time      0.0026: real time      0.0026
    CHARGE:  cpu time      0.0161: real time      0.0163
    MIXING:  cpu time      0.0008: real time      0.0219
    --------------------------------------------
      LOOP:  cpu time     22.2807: real time     22.4816

 eigenvalue-minimisations  : 10560
 total energy-change (2. order) : 0.3148698E-01  (-0.4757875E-01)
 number of electron      40.0000010 magnetization 
 augmentation part        0.4046927 magnetization 

 Broyden mixing:
  rms(total) = 0.11499E+00    rms(broyden)= 0.11498E+00
  rms(prec ) = 0.18258E+00
  weight for this iteration     100.00

 eigenvalues of (default mixing * dielectric matrix)
  average eigenvalue GAMMA=   1.7053
  2.1535  2.1535  0.8090

 Free energy of the ion-electron system (eV)
  ---------------------------------------------------
  alpha Z        PSCENC =       240.34259355
  Ewald energy   TEWEN  =     -2693.37944630
  -Hartree energ DENC   =      -708.45751055
  -exchange      EXHF   =         0.00000000
  -V(xc)+E(xc)   XCENC  =       161.66409134
  PAW double counting   =      4608.54876643    -4596.00183563
  entropy T*S    EENTRO =        -0.00000000
  eigenvalues    EBANDS =      -336.57885982
  atomic energy  EATOM  =      3282.16168129
  Solvation  Ediel_sol  =         0.00000000
  ---------------------------------------------------
  free energy    TOTEN  =       -41.70051969 eV

  energy without entropy =      -41.70051969  energy(sigma->0) =      -41.70051969


--------------------------------------------------------------------------------------------------------




--------------------------------------- Iteration      1(   9)  ---------------------------------------


    POTLOK:  cpu time      0.0272: real time      0.0406
    SETDIJ:  cpu time      0.0853: real time      0.0859
     EDDAV:  cpu time     11.9538: real time     12.0521
       DOS:  cpu time      0.0021: real time      0.0022
    CHARGE:  cpu time      0.0161: real time      0.0162
    MIXING:  cpu time      0.0004: real time      0.0004
    --------------------------------------------
      LOOP:  cpu time     12.0849: real time     12.1974

 eigenvalue-minimisations  :  7840
 total energy-change (2. order) :-0.2004704E-02  (-0.2269418E-01)
 number of electron      40.0000010 magnetization 
 augmentation part        0.4402315 magnetization 

 Broyden mixing:
  rms(total) = 0.13449E+00    rms(broyden)= 0.13449E+00
  rms(prec ) = 0.18754E+00
  weight for this iteration     100.00

 eigenvalues of (default mixing * dielectric matrix)
  average eigenvalue GAMMA=   1.4867
  2.4676  1.7421  0.7618  0.9753

 Free energy of the ion-electron system (eV)
  ---------------------------------------------------
  alpha Z        PSCENC =       240.34259355
  Ewald energy   TEWEN  =     -2693.37944630
  -Hartree energ DENC   =      -710.23241283
  -exchange      EXHF   =         0.00000000
  -V(xc)+E(xc)   XCENC  =       161.69790781
  PAW double counting   =      4489.62039679    -4476.35930109
  entropy T*S    EENTRO =        -0.00000000
  eigenvalues    EBANDS =      -335.55394363
  atomic energy  EATOM  =      3282.16168129
  Solvation  Ediel_sol  =         0.00000000
  ---------------------------------------------------
  free energy    TOTEN  =       -41.70252440 eV

  energy without entropy =      -41.70252440  energy(sigma->0) =      -41.70252440


--------------------------------------------------------------------------------------------------------




--------------------------------------- Iteration      1(  10)  ---------------------------------------


    POTLOK:  cpu time      0.0300: real time      0.0406
    SETDIJ:  cpu time      0.0853: real time      0.0860
     EDDAV:  cpu time     16.5189: real time     16.6590
       DOS:  cpu time      0.0022: real time      0.0022
    CHARGE:  cpu time      0.0162: real time      0.0164
    MIXING:  cpu time      0.0004: real time      0.0004
    --------------------------------------------
      LOOP:  cpu time     16.6531: real time     16.8046

 eigenvalue-minimisations  :  8960
 total energy-change (2. order) : 0.7412169E-02  (-0.5403943E-02)
 number of electron      40.0000010 magnetization 
 augmentation part        0.4201750 magnetization 

 Broyden mixing:
  rms(total) = 0.62150E-02    rms(broyden)= 0.62087E-02
  rms(prec ) = 0.10826E-01
  weight for this iteration     100.00

 eigenvalues of (default mixing * dielectric matrix)
  average eigenvalue GAMMA=   1.7147
  2.8587  2.3314  1.6145  1.0022  0.7665

 Free energy of the ion-electron system (eV)
  ---------------------------------------------------
  alpha Z        PSCENC =       240.34259355
  Ewald energy   TEWEN  =     -2693.37944630
  -Hartree energ DENC   =      -710.79960033
  -exchange      EXHF   =         0.00000000
  -V(xc)+E(xc)   XCENC  =       161.76253658
  PAW double counting   =      4600.89017029    -4587.70869746
  entropy T*S    EENTRO =        -0.00000000
  eigenvalues    EBANDS =      -334.96434986
  atomic energy  EATOM  =      3282.16168129
  Solvation  Ediel_sol  =         0.00000000
  ---------------------------------------------------
  free energy    TOTEN  =       -41.69511223 eV

  energy without entropy =      -41.69511223  energy(sigma->0) =      -41.69511223


--------------------------------------------------------------------------------------------------------




--------------------------------------- Iteration      1(  11)  ---------------------------------------


    POTLOK:  cpu time      0.0298: real time      0.0417
    SETDIJ:  cpu time      0.0854: real time      0.0860
     EDDAV:  cpu time     15.3322: real time     15.4551
       DOS:  cpu time      0.0022: real time      0.0022
    CHARGE:  cpu time      0.0165: real time      0.0166
    MIXING:  cpu time      0.0005: real time      0.0005
    --------------------------------------------
      LOOP:  cpu time     15.4665: real time     15.6022

 eigenvalue-minimisations  :  8640
 total energy-change (2. order) :-0.2008090E-03  (-0.3732351E-04)
 number of electron      40.0000010 magnetization 
 augmentation part        0.4203487 magnetization 

 Broyden mixing:
  rms(total) = 0.12912E-02    rms(broyden)= 0.12897E-02
  rms(prec ) = 0.21832E-02
  weight for this iteration     100.00

 eigenvalues of (default mixing * dielectric matrix)
  average eigenvalue GAMMA=   1.7145
  2.9466  2.3346  1.8931  0.7678  1.0245  1.3203

 Free energy of the ion-electron system (eV)
  ---------------------------------------------------
  alpha Z        PSCENC =       240.34259355
  Ewald energy   TEWEN  =     -2693.37944630
  -Hartree energ DENC   =      -710.91275996
  -exchange      EXHF   =         0.00000000
  -V(xc)+E(xc)   XCENC  =       161.77307643
  PAW double counting   =      4601.44189754    -4588.25062242
  entropy T*S    EENTRO =        -0.00000000
  eigenvalues    EBANDS =      -334.87173318
  atomic energy  EATOM  =      3282.16168129
  Solvation  Ediel_sol  =         0.00000000
  ---------------------------------------------------
  free energy    TOTEN  =       -41.69531304 eV

  energy without entropy =      -41.69531304  energy(sigma->0) =      -41.69531304


--------------------------------------------------------------------------------------------------------




--------------------------------------- Iteration      1(  12)  ---------------------------------------


    POTLOK:  cpu time      0.0315: real time      0.0415
    SETDIJ:  cpu time      0.0855: real time      0.0865
     EDDAV:  cpu time     17.0585: real time     17.1903
       DOS:  cpu time      0.0020: real time      0.0020
    CHARGE:  cpu time      0.0161: real time      0.0163
    MIXING:  cpu time      0.0004: real time      0.0004
    --------------------------------------------
      LOOP:  cpu time     17.1940: real time     17.3369

 eigenvalue-minimisations  :  9280
 total energy-change (2. order) :-0.1009742E-04  (-0.2268319E-05)
 number of electron      40.0000010 magnetization 
 augmentation part        0.4204656 magnetization 

 Broyden mixing:
  rms(total) = 0.10942E-02    rms(broyden)= 0.10941E-02
  rms(prec ) = 0.15581E-02
  weight for this iteration     100.00

 eigenvalues of (default mixing * dielectric matrix)
  average eigenvalue GAMMA=   1.7333
  3.0352  2.4655  2.3543  1.5839  1.0153  0.7669  0.9119

 Free energy of the ion-electron system (eV)
  ---------------------------------------------------
  alpha Z        PSCENC =       240.34259355
  Ewald energy   TEWEN  =     -2693.37944630
  -Hartree energ DENC   =      -710.89758023
  -exchange      EXHF   =         0.00000000
  -V(xc)+E(xc)   XCENC  =       161.77360761
  PAW double counting   =      4601.02378360    -4587.84069239
  entropy T*S    EENTRO =        -0.00000000
  eigenvalues    EBANDS =      -334.87927028
  atomic energy  EATOM  =      3282.16168129
  Solvation  Ediel_sol  =         0.00000000
  ---------------------------------------------------
  free energy    TOTEN  =       -41.69532314 eV

  energy without entropy =      -41.69532314  energy(sigma->0) =      -41.69532314


--------------------------------------------------------------------------------------------------------




--------------------------------------- Iteration      1(  13)  ---------------------------------------


    POTLOK:  cpu time      0.0293: real time      0.0417
    SETDIJ:  cpu time      0.0853: real time      0.0859
     EDDAV:  cpu time      9.8138: real time      9.8912
       DOS:  cpu time      0.0021: real time      0.0021
    CHARGE:  cpu time      0.0160: real time      0.0161
    MIXING:  cpu time      0.0005: real time      0.0005
    --------------------------------------------
      LOOP:  cpu time      9.9471: real time     10.0376

 eigenvalue-minimisations  :  7200
 total energy-change (2. order) :-0.8749066E-07  (-0.5303347E-06)
 number of electron      40.0000010 magnetization 
 augmentation part        0.4206908 magnetization 

 Broyden mixing:
  rms(total) = 0.13462E-03    rms(broyden)= 0.13461E-03
  rms(prec ) = 0.21065E-03
  weight for this iteration     100.00

 eigenvalues of (default mixing * dielectric matrix)
  average eigenvalue GAMMA=   1.7818
  3.2286  2.5527  2.2974  0.7671  1.0104  1.0104  1.6940  1.6940

 Free energy of the ion-electron system (eV)
  ---------------------------------------------------
  alpha Z        PSCENC =       240.34259355
  Ewald energy   TEWEN  =     -2693.37944630
  -Hartree energ DENC   =      -710.89549246
  -exchange      EXHF   =         0.00000000
  -V(xc)+E(xc)   XCENC  =       161.77381566
  PAW double counting   =      4600.09900255    -4586.91949180
  entropy T*S    EENTRO =        -0.00000000
  eigenvalues    EBANDS =      -334.87798572
  atomic energy  EATOM  =      3282.16168129
  Solvation  Ediel_sol  =         0.00000000
  ---------------------------------------------------
  free energy    TOTEN  =       -41.69532322 eV

  energy without entropy =      -41.69532322  energy(sigma->0) =      -41.69532322


--------------------------------------------------------------------------------------------------------




--------------------------------------- Iteration      1(  14)  ---------------------------------------


    POTLOK:  cpu time      0.0295: real time      0.0401
    SETDIJ:  cpu time      0.0855: real time      0.0861
     EDDAV:  cpu time     17.3291: real time     17.4627
       DOS:  cpu time      0.0024: real time      0.0024
    --------------------------------------------
      LOOP:  cpu time     17.4466: real time     17.5913

 eigenvalue-minimisations  :  9120
 total energy-change (2. order) :-0.9449377E-07  (-0.9115726E-08)
 number of electron      40.0000010 magnetization 
 augmentation part        0.4206908 magnetization 

 Free energy of the ion-electron system (eV)
  ---------------------------------------------------
  alpha Z        PSCENC =       240.34259355
  Ewald energy   TEWEN  =     -2693.37944630
  -Hartree energ DENC   =      -710.89628363
  -exchange      EXHF   =         0.00000000
  -V(xc)+E(xc)   XCENC  =       161.77394178
  PAW double counting   =      4600.10255105    -4586.92334139
  entropy T*S    EENTRO =        -0.00000000
  eigenvalues    EBANDS =      -334.87701967
  atomic energy  EATOM  =      3282.16168129
  Solvation  Ediel_sol  =         0.00000000
  ---------------------------------------------------
  free energy    TOTEN  =       -41.69532332 eV

  energy without entropy =      -41.69532332  energy(sigma->0) =      -41.69532332


--------------------------------------------------------------------------------------------------------




 average (electrostatic) potential at core
  the test charge radii are     1.2192  1.0638  0.7215
  (the norm of the test charge is              1.0000)
       1 -33.5755       2 -78.1393       3 -69.3371       4 -69.3371       5 -69.3371
 
 
 
 E-fermi :   4.1283     XC(G=0): -10.7686     alpha+bet :-13.8810

 val. band max:        3.7844816264   @ k =   0.5000   0.5000   0.5000
 cond. band min:       6.9738465634   @ k =   0.0000   0.0000   0.0000
 fundamental gap:      3.1893649370
 Fermi energy:         4.1283149029

 k-point     1 :       0.0000    0.0000    0.0000
  band No.  band energies     occupation 
      1     -43.2373      2.00000
      2     -21.5311      2.00000
      3     -21.3981      2.00000
      4     -21.3981      2.00000
      5     -21.3981      2.00000
      6     -12.5862      2.00000
      7     -12.3062      2.00000
      8     -12.3062      2.00000
      9      -6.6694      2.00000
     10      -6.6694      2.00000
     11      -6.6694      2.00000
     12       2.3341      2.00000
     13       2.3341      2.00000
     14       2.3341      2.00000
     15       2.8004      2.00000
     16       2.8004      2.00000
     17       2.8004      2.00000
     18       3.5595      2.00000
     19       3.5595      2.00000
     20       3.5595      2.00000
     21       6.9738      0.00000
     22       6.9738      0.00000
     23       6.9738      0.00000
     24       8.4393      0.00000
     25       8.4393      0.00000
     26       9.6945      0.00000
     27      11.2274      0.00000
     28      11.2274      0.00000
     29      12.2748      0.00000
     30      12.2748      0.00000
     31      12.2748      0.00000
     32      19.1335      0.00000
     33      19.1335      0.00000
     34      19.1335      0.00000
     35      19.3147      0.00000
     36      21.3850      0.00000
     37      22.8149      0.00000
     38      22.8149      0.00000
     39      22.8149      0.00000
     40      24.5894      0.00000
     41      24.5894      0.00000
     42      27.1645      0.00000
     43      27.1645      0.00000
     44      27.1645      0.00000
     45      28.4873      0.00000
     46      28.4873      0.00000
     47      28.4873      0.00000
     48      32.1051      0.00000
     49      32.1051      0.00000
     50      32.1051      0.00000
     51      32.1232      0.00000
     52      32.1232      0.00000
     53      32.4652      0.00000
     54      32.4652      0.00000
     55      32.4652      0.00000
     56      33.1933      0.00000
     57      34.0787      0.00000
     58      34.0787      0.00000
     59      34.0787      0.00000
     60      37.1416      0.00000
     61      37.1416      0.00000
     62      37.1416      0.00000
     63      37.7786      0.00000
     64      38.4885      0.00000
     65      38.6822      0.00000
     66      39.8231      0.00000
     67      39.8231      0.00000
     68      39.8231      0.00000
     69      40.5761      0.00000
     70      40.5761      0.00000
     71      42.0558      0.00000
     72      42.0558      0.00000
     73      42.0558      0.00000
     74      43.3182      0.00000
     75      43.3182      0.00000
     76      43.3182      0.00000
     77      45.3468      0.00000
     78      45.3468      0.00000
     79      45.3468      0.00000
     80      46.6691      0.00000
     81      46.6691      0.00000
     82      46.6691      0.00000
     83      48.8272      0.00000
     84      48.8272      0.00000
     85      49.4741      0.00000
     86      49.4741      0.00000
     87      50.4039      0.00000
     88      50.4039      0.00000
     89      50.4039      0.00000
     90      52.8018      0.00000
     91      52.8018      0.00000
     92      52.8018      0.00000
     93      54.0747      0.00000
     94      54.0747      0.00000
     95      54.0747      0.00000
     96      56.4113      0.00000
     97      59.0728      0.00000
     98      59.0728      0.00000
     99      59.0728      0.00000
    100      59.4092      0.00000
    101      59.4092      0.00000
    102      59.4092      0.00000
    103      59.4467      0.00000
    104      59.4467      0.00000
    105      59.5577      0.00000
    106      59.8040      0.00000
    107      59.8040      0.00000
    108      59.8040      0.00000
    109      60.0376      0.00000
    110      65.0175      0.00000
    111      65.0175      0.00000
    112      66.0047      0.00000
    113      67.4298      0.00000
    114      67.4298      0.00000
    115      67.4298      0.00000
    116      68.4797      0.00000
    117      68.4797      0.00000
    118      68.4797      0.00000
    119      69.3372      0.00000
    120      69.3372      0.00000
    121      69.3372      0.00000
    122      69.8566      0.00000
    123      69.8566      0.00000
    124      72.1946      0.00000
    125      72.1946      0.00000
    126      72.1946      0.00000
    127      72.2613      0.00000
    128      72.3305      0.00000
    129      72.3305      0.00000
    130      72.3305      0.00000
    131      72.5890      0.00000
    132      72.5890      0.00000
    133      72.8987      0.00000
    134      72.8987      0.00000
    135      72.8987      0.00000
    136      73.6190      0.00000
    137      73.6190      0.00000
    138      73.6190      0.00000
    139      77.1953      0.00000
    140      77.1953      0.00000
    141      77.7389      0.00000
    142      77.7389      0.00000
    143      77.7389      0.00000
    144      77.7987      0.00000
    145      78.3009      0.00000
    146      78.3009      0.00000
    147      78.3009      0.00000
    148      79.1785      0.00000
    149      79.1785      0.00000
    150      79.1785      0.00000
    151      81.6156      0.00000
    152      81.6156      0.00000
    153      83.0595      0.00000
    154      83.5964      0.00000
    155      83.5964      0.00000
    156      83.5964      0.00000
    157      83.6088      0.00000
    158      83.6088      0.00000
    159      83.6088      0.00000
    160      84.2301      0.00000

 k-point     2 :       0.1667    0.0000    0.0000
  band No.  band energies     occupation 
      1     -43.2365      2.00000
      2     -21.6098      2.00000
      3     -21.3964      2.00000
      4     -21.3964      2.00000
      5     -21.3680      2.00000
      6     -12.5929      2.00000
      7     -12.3002      2.00000
      8     -12.1211      2.00000
      9      -6.6522      2.00000
     10      -6.6522      2.00000
     11      -6.6188      2.00000
     12       1.8873      2.00000
     13       2.2421      2.00000
     14       2.2421      2.00000
     15       2.5536      2.00000
     16       2.5536      2.00000
     17       2.6024      2.00000
     18       2.9118      2.00000
     19       3.4735      2.00000
     20       3.4735      2.00000
     21       7.0706      0.00000
     22       7.5804      0.00000
     23       7.5804      0.00000
     24       8.8703      0.00000
     25       8.8888      0.00000
     26      10.2741      0.00000
     27      11.2285      0.00000
     28      11.9720      0.00000
     29      12.0555      0.00000
     30      12.3803      0.00000
     31      12.3803      0.00000
     32      17.9837      0.00000
     33      19.3417      0.00000
     34      19.3417      0.00000
     35      20.5386      0.00000
     36      21.8371      0.00000
     37      22.1352      0.00000
     38      22.2287      0.00000
     39      22.9248      0.00000
     40      22.9248      0.00000
     41      24.6205      0.00000
     42      25.7718      0.00000
     43      25.7718      0.00000
     44      27.2559      0.00000
     45      28.0071      0.00000
     46      28.0071      0.00000
     47      29.5510      0.00000
     48      30.6800      0.00000
     49      30.9928      0.00000
     50      30.9928      0.00000
     51      32.0765      0.00000
     52      32.2916      0.00000
     53      32.5469      0.00000
     54      33.3876      0.00000
     55      33.3876      0.00000
     56      35.0325      0.00000
     57      35.0325      0.00000
     58      35.1479      0.00000
     59      35.4646      0.00000
     60      37.2845      0.00000
     61      37.5478      0.00000
     62      37.6886      0.00000
     63      37.6886      0.00000
     64      37.7743      0.00000
     65      38.2342      0.00000
     66      38.7321      0.00000
     67      40.0109      0.00000
     68      40.7265      0.00000
     69      40.7265      0.00000
     70      40.8935      0.00000
     71      41.3254      0.00000
     72      41.3254      0.00000
     73      42.2129      0.00000
     74      42.2129      0.00000
     75      43.4461      0.00000
     76      43.9010      0.00000
     77      44.1536      0.00000
     78      45.8946      0.00000
     79      46.6080      0.00000
     80      46.6080      0.00000
     81      47.8050      0.00000
     82      48.5994      0.00000
     83      48.5994      0.00000
     84      49.0638      0.00000
     85      50.2949      0.00000
     86      50.2949      0.00000
     87      50.5751      0.00000
     88      51.6916      0.00000
     89      51.8674      0.00000
     90      51.8674      0.00000
     91      51.9296      0.00000
     92      52.4688      0.00000
     93      53.2724      0.00000
     94      53.2724      0.00000
     95      53.8672      0.00000
     96      55.6620      0.00000
     97      55.7663      0.00000
     98      56.4179      0.00000
     99      56.4179      0.00000
    100      57.8795      0.00000
    101      58.0646      0.00000
    102      59.4738      0.00000
    103      61.5227      0.00000
    104      61.7048      0.00000
    105      61.7048      0.00000
    106      62.0246      0.00000
    107      62.5369      0.00000
    108      62.9326      0.00000
    109      62.9326      0.00000
    110      63.4011      0.00000
    111      64.4337      0.00000
    112      64.4337      0.00000
    113      65.4729      0.00000
    114      66.0694      0.00000
    115      66.5742      0.00000
    116      67.0234      0.00000
    117      67.0721      0.00000
    118      67.0721      0.00000
    119      67.2554      0.00000
    120      69.2066      0.00000
    121      69.2798      0.00000
    122      69.2798      0.00000
    123      69.4588      0.00000
    124      70.4189      0.00000
    125      70.4189      0.00000
    126      70.6604      0.00000
    127      70.8569      0.00000
    128      72.2932      0.00000
    129      72.3454      0.00000
    130      72.9538      0.00000
    131      72.9538      0.00000
    132      73.9027      0.00000
    133      73.9027      0.00000
    134      74.9965      0.00000
    135      75.4034      0.00000
    136      75.4034      0.00000
    137      75.5911      0.00000
    138      75.7885      0.00000
    139      75.7885      0.00000
    140      76.3062      0.00000
    141      77.2225      0.00000
    142      77.5490      0.00000
    143      77.5490      0.00000
    144      77.9182      0.00000
    145      78.1179      0.00000
    146      78.2079      0.00000
    147      79.1492      0.00000
    148      79.1492      0.00000
    149      79.8488      0.00000
    150      79.9107      0.00000
    151      80.7497      0.00000
    152      81.6951      0.00000
    153      82.2096      0.00000
    154      82.5354      0.00000
    155      82.5354      0.00000
    156      83.0426      0.00000
    157      83.0809      0.00000
    158      83.3672      0.00000
    159      83.4595      0.00000
    160      83.4686      0.00000

 k-point     3 :       0.3333    0.0000    0.0000
  band No.  band energies     occupation 
      1     -43.2348      2.00000
      2     -21.7405      2.00000
      3     -21.3929      2.00000
      4     -21.3929      2.00000
      5     -21.3291      2.00000
      6     -12.6976      2.00000
[...]
     49      28.8086      0.00000
     50      30.6014      0.00000
     51      30.6014      0.00000
     52      31.0191      0.00000
     53      31.5595      0.00000
     54      32.2703      0.00000
     55      32.7402      0.00000
     56      32.7402      0.00000
     57      33.0492      0.00000
     58      33.0492      0.00000
     59      33.2506      0.00000
     60      33.3426      0.00000
     61      34.2811      0.00000
     62      35.9720      0.00000
     63      38.3077      0.00000
     64      38.3077      0.00000
     65      38.9277      0.00000
     66      40.3090      0.00000
     67      40.4420      0.00000
     68      40.4420      0.00000
     69      41.4915      0.00000
     70      42.4109      0.00000
     71      43.1191      0.00000
     72      43.1191      0.00000
     73      43.4949      0.00000
     74      45.4845      0.00000
     75      45.8415      0.00000
     76      46.4224      0.00000
     77      46.4224      0.00000
     78      46.9408      0.00000
     79      46.9408      0.00000
     80      47.1809      0.00000
     81      47.1809      0.00000
     82      48.2876      0.00000
     83      48.3983      0.00000
     84      49.2044      0.00000
     85      49.6213      0.00000
     86      49.8046      0.00000
     87      49.8046      0.00000
     88      51.1047      0.00000
     89      51.6227      0.00000
     90      52.7192      0.00000
     91      53.1338      0.00000
     92      53.5043      0.00000
     93      53.5043      0.00000
     94      54.8434      0.00000
     95      55.1786      0.00000
     96      55.1786      0.00000
     97      55.3418      0.00000
     98      55.5675      0.00000
     99      55.5675      0.00000
    100      56.2737      0.00000
    101      57.6074      0.00000
    102      57.7338      0.00000
    103      58.0750      0.00000
    104      58.0750      0.00000
    105      58.3511      0.00000
    106      59.3952      0.00000
    107      59.6377      0.00000
    108      59.6377      0.00000
    109      59.9788      0.00000
    110      60.9623      0.00000
    111      61.0929      0.00000
    112      62.1880      0.00000
    113      62.1880      0.00000
    114      62.2633      0.00000
    115      64.0443      0.00000
    116      64.0443      0.00000
    117      64.0642      0.00000
    118      64.1141      0.00000
    119      64.1804      0.00000
    120      64.4979      0.00000
    121      64.4979      0.00000
    122      65.4946      0.00000
    123      65.4946      0.00000
    124      66.3403      0.00000
    125      66.7318      0.00000
    126      66.8775      0.00000
    127      66.8775      0.00000
    128      67.3481      0.00000
    129      67.8520      0.00000
    130      68.0144      0.00000
    131      68.0144      0.00000
    132      69.6629      0.00000
    133      69.8230      0.00000
    134      69.8238      0.00000
    135      69.8238      0.00000
    136      70.4646      0.00000
    137      71.1784      0.00000
    138      73.8425      0.00000
    139      73.8425      0.00000
    140      73.9196      0.00000
    141      74.4734      0.00000
    142      74.4890      0.00000
    143      76.3101      0.00000
    144      76.4219      0.00000
    145      76.4447      0.00000
    146      76.4447      0.00000
    147      76.7291      0.00000
    148      76.8094      0.00000
    149      77.2820      0.00000
    150      77.8627      0.00000
    151      77.8627      0.00000
    152      78.1404      0.00000
    153      78.1404      0.00000
    154      78.4589      0.00000
    155      80.5965      0.00000
    156      80.6713      0.00000
    157      80.6713      0.00000
    158      80.6751      0.00000
    159      81.2987      0.00000
    160      81.2987      0.00000

 k-point    20 :       0.5000    0.5000    0.5000
  band No.  band energies     occupation 
      1     -43.6401      2.00000
      2     -21.9682      2.00000
      3     -21.9682      2.00000
      4     -21.9682      2.00000
      5     -21.7349      2.00000
      6     -11.6254      2.00000
      7     -11.6254      2.00000
      8     -11.6254      2.00000
      9      -7.4090      2.00000
     10      -7.4090      2.00000
     11      -7.4090      2.00000
     12      -0.0744      2.00000
     13      -0.0744      2.00000
     14       0.0950      2.00000
     15       1.0488      2.00000
     16       1.0488      2.00000
     17       1.0488      2.00000
     18       3.5666      2.00000
     19       3.5666      2.00000
     20       3.5666      2.00000
     21       9.4260      0.00000
     22       9.4260      0.00000
     23       9.4260      0.00000
     24      10.2965      0.00000
     25      10.2965      0.00000
     26      10.2965      0.00000
     27      12.5059      0.00000
     28      12.5059      0.00000
     29      13.9025      0.00000
     30      15.1988      0.00000
     31      15.1988      0.00000
     32      16.8727      0.00000
     33      16.8727      0.00000
     34      16.8727      0.00000
     35      17.4467      0.00000
     36      20.3902      0.00000
     37      20.3902      0.00000
     38      20.3902      0.00000
     39      20.6346      0.00000
     40      20.6346      0.00000
     41      20.6346      0.00000
     42      24.0909      0.00000
     43      24.0909      0.00000
     44      24.0909      0.00000
     45      27.1676      0.00000
     46      27.1676      0.00000
     47      27.1676      0.00000
     48      29.3439      0.00000
     49      29.3439      0.00000
     50      29.3439      0.00000
     51      30.4891      0.00000
     52      30.8721      0.00000
     53      31.8720      0.00000
     54      31.8720      0.00000
     55      32.3073      0.00000
     56      32.3073      0.00000
     57      32.4968      0.00000
     58      32.4968      0.00000
     59      32.4968      0.00000
     60      33.2846      0.00000
     61      33.2846      0.00000
     62      33.2846      0.00000
     63      38.8798      0.00000
     64      38.8798      0.00000
     65      38.8798      0.00000
     66      43.1729      0.00000
     67      43.1729      0.00000
     68      43.1729      0.00000
     69      43.4813      0.00000
     70      43.4813      0.00000
     71      43.4813      0.00000
     72      43.6197      0.00000
     73      43.8960      0.00000
     74      43.8960      0.00000
     75      43.8960      0.00000
     76      45.2813      0.00000
     77      45.2813      0.00000
     78      47.2766      0.00000
     79      47.3613      0.00000
     80      47.3613      0.00000
     81      47.3613      0.00000
     82      48.3412      0.00000
     83      48.3412      0.00000
     84      48.3412      0.00000
     85      48.5383      0.00000
     86      49.2434      0.00000
     87      49.2434      0.00000
     88      49.2434      0.00000
     89      51.7117      0.00000
     90      51.7117      0.00000
     91      52.3508      0.00000
     92      52.3508      0.00000
     93      52.3508      0.00000
     94      56.8055      0.00000
     95      57.4593      0.00000
     96      57.4593      0.00000
     97      57.4593      0.00000
     98      57.6945      0.00000
     99      57.6945      0.00000
    100      57.6945      0.00000
    101      58.3190      0.00000
    102      58.3190      0.00000
    103      58.3190      0.00000
    104      59.2184      0.00000
    105      59.2184      0.00000
    106      59.2184      0.00000
    107      60.3445      0.00000
    108      60.3445      0.00000
    109      60.4836      0.00000
    110      60.4836      0.00000
    111      60.4836      0.00000
    112      60.9320      0.00000
    113      60.9320      0.00000
    114      61.4116      0.00000
    115      61.7675      0.00000
    116      61.7675      0.00000
    117      61.7675      0.00000
    118      62.0888      0.00000
    119      62.0888      0.00000
    120      62.0888      0.00000
    121      66.0573      0.00000
    122      66.0573      0.00000
    123      66.0573      0.00000
    124      67.1557      0.00000
    125      67.1557      0.00000
    126      67.1557      0.00000
    127      68.3322      0.00000
    128      68.3322      0.00000
    129      68.4302      0.00000
    130      68.4302      0.00000
    131      68.4302      0.00000
    132      68.8612      0.00000
    133      69.6899      0.00000
    134      70.3443      0.00000
    135      70.3443      0.00000
    136      70.3443      0.00000
    137      71.0296      0.00000
    138      71.0296      0.00000
    139      71.7625      0.00000
    140      73.0952      0.00000
    141      73.4045      0.00000
    142      73.4045      0.00000
    143      73.4045      0.00000
    144      73.5039      0.00000
    145      73.5039      0.00000
    146      73.5039      0.00000
    147      78.5607      0.00000
    148      78.5607      0.00000
    149      78.5607      0.00000
    150      78.8211      0.00000
    151      80.2180      0.00000
    152      80.2180      0.00000
    153      80.2180      0.00000
    154      80.6932      0.00000
    155      80.6932      0.00000
    156      80.9171      0.00000
    157      80.9171      0.00000
    158      80.9171      0.00000
    159      81.6021      0.00000
    160      81.6021      0.00000


--------------------------------------------------------------------------------------------------------


 soft charge-density along one line, spin component           1
         0         1         2         3         4         5         6         7         8         9
 total charge-density along one line
 
 pseudopotential strength for first ion, spin component:           1
  1.211  -5.034   0.000   0.000   0.000   0.000   0.000  -0.000
 -5.034   0.683  -0.000  -0.000  -0.000   0.000   0.000   0.000
  0.000  -0.000  -7.684   0.000  -0.000   4.455   0.000   0.000
  0.000  -0.000   0.000  -7.684   0.000   0.000   4.455  -0.000
  0.000  -0.000  -0.000   0.000  -7.684   0.000  -0.000   4.455
  0.000   0.000   4.455   0.000   0.000   6.765  -0.000   0.000
  0.000   0.000   0.000   4.455  -0.000  -0.000   6.765   0.000
 -0.000   0.000   0.000  -0.000   4.455   0.000   0.000   6.765
 -0.000   0.000   0.000  -0.000   0.000   0.000  -0.000   0.000
  0.000  -0.000   0.000   0.000  -0.000   0.000   0.000  -0.000
  0.000   0.000  -0.000   0.000   0.000  -0.000   0.000   0.000
  0.000   0.000  -0.000   0.000   0.000  -0.000   0.000   0.000
 -0.000  -0.000  -0.000   0.000   0.000  -0.000   0.000  -0.000
 -0.000   0.000  -0.000  -0.000   0.000   0.000  -0.000   0.000
  0.000  -0.000   0.000   0.000  -0.000   0.000   0.000  -0.000
  0.000   0.000  -0.000   0.000  -0.000  -0.000   0.000   0.000
  0.000   0.000  -0.000   0.000   0.000  -0.000   0.000   0.000
 -0.000  -0.000  -0.000   0.000   0.000  -0.000   0.000  -0.000
 total augmentation occupancy for first ion, spin component:           1
  2.003  -0.007   0.000   0.000   0.000   0.000   0.000   0.000   0.000   0.000  -0.000   0.000  -0.000   0.000   0.000  -0.000
 -0.007   0.347   0.000   0.000   0.000   0.000   0.000   0.000  -0.000  -0.000   0.000  -0.000   0.000  -0.000   0.000  -0.000
  0.000   0.000   2.017  -0.000  -0.000  -0.009  -0.000  -0.000   0.000   0.000   0.000   0.000   0.000   0.000   0.000   0.000
  0.000   0.000  -0.000   2.017  -0.000   0.000  -0.009   0.000   0.000   0.000   0.000   0.000   0.000   0.000   0.000   0.000
  0.000   0.000  -0.000  -0.000   2.017   0.000   0.000  -0.009   0.000   0.000   0.000   0.000   0.000   0.000   0.000   0.000
  0.000   0.000  -0.009   0.000   0.000   0.008   0.000   0.000   0.000   0.000   0.000   0.000   0.000   0.000   0.000   0.000
  0.000   0.000  -0.000  -0.009   0.000   0.000   0.008  -0.000   0.000   0.000   0.000   0.000   0.000   0.000   0.000   0.000
  0.000   0.000  -0.000   0.000  -0.009   0.000  -0.000   0.008   0.000   0.000   0.000   0.000   0.000   0.000   0.000   0.000
  0.000  -0.000   0.000   0.000   0.000   0.000   0.000   0.000   2.018  -0.000  -0.000  -0.000   0.000  -1.044   0.000  -0.000
  0.000  -0.000   0.000   0.000   0.000   0.000   0.000   0.000  -0.000   2.018   0.000   0.000   0.000   0.000  -1.044   0.000
 -0.000   0.000   0.000   0.000   0.000   0.000   0.000   0.000  -0.000   0.000   1.241   0.000  -0.000  -0.000  -0.000  -0.639
  0.000  -0.000   0.000   0.000   0.000   0.000   0.000   0.000  -0.000   0.000   0.000   2.018  -0.000  -0.000   0.000   0.000
 -0.000   0.000   0.000   0.000   0.000   0.000   0.000   0.000  -0.000   0.000  -0.000  -0.000   1.241   0.000  -0.000   0.000
  0.000  -0.000   0.000   0.000   0.000   0.000   0.000   0.000  -1.044   0.000   0.000  -0.000   0.000   0.541  -0.000  -0.000
  0.000   0.000   0.000   0.000   0.000   0.000   0.000   0.000   0.000  -1.044  -0.000   0.000  -0.000  -0.000   0.541   0.000
 -0.000  -0.000   0.000   0.000   0.000   0.000   0.000   0.000  -0.000   0.000  -0.639   0.000   0.000  -0.000   0.000   0.330
 -0.000   0.000   0.000   0.000   0.000   0.000   0.000   0.000   0.000   0.000  -0.000  -1.044  -0.000  -0.000   0.000   0.000
 -0.000   0.000   0.000   0.000   0.000   0.000   0.000   0.000   0.000  -0.000  -0.000   0.000  -0.639  -0.000  -0.000  -0.000


------------------------ aborting loop because EDIFF is reached ----------------------------------------


    CHARGE:  cpu time      0.0156: real time      0.0158
    FORLOC:  cpu time      0.0002: real time      0.0002
    FORNL :  cpu time      0.1049: real time      0.1058
    STRESS:  cpu time      0.3146: real time      0.3172
    FORCOR:  cpu time      0.0036: real time      0.0036
    FORHAR:  cpu time      0.0008: real time      0.0008
    MIXING:  cpu time      0.0003: real time      0.0003
    OFIELD:  cpu time      0.0000: real time      0.0000

  FORCE on cell =-STRESS in cart. coord.  units (eV):
  Direction    XX          YY          ZZ          XY          YZ          ZX
  --------------------------------------------------------------------------------------
  Alpha Z   233.02017   233.02017   233.02017
  Ewald    -888.58215  -888.58215  -888.58215    -0.00000    -0.00000     0.00000
  Hartree   240.16455   240.16455   240.16455    -0.00000    -0.00000    -0.00000
  E(xc)    -175.50357  -175.50357  -175.50357     0.00000    -0.00000    -0.00000
  Local     -66.31883   -66.31883   -66.31883     0.00000    -0.00000    -0.00000
  n-local  -123.71776  -118.50363  -111.17000     0.12548     0.22719     0.09689
  augment    13.76964    13.76964    13.76964    -0.00000    -0.00000    -0.00000
  Kinetic   755.77651   764.03104   763.90486    -2.67150    -3.21689    -1.64002
  Fock        0.00000     0.00000     0.00000     0.00000     0.00000     0.00000
  -------------------------------------------------------------------------------------
  Total      -0.00983    -0.00983    -0.00983    -0.00000     0.00000    -0.00000
  in kB      -0.20737    -0.20737    -0.20737    -0.00000     0.00000    -0.00000
  external pressure =       -0.21 kB  Pullay stress =        0.00 kB


 VOLUME and BASIS-vectors are now :
 -----------------------------------------------------------------------------
  energy-cutoff  :      600.00
  volume of cell :       75.98
      direct lattice vectors                 reciprocal lattice vectors
     4.235457686 -0.000000000  0.000000000     0.236101993  0.000000000  0.000000000
    -0.000000000  4.235457686  0.000000000     0.000000000  0.236101993  0.000000000
    -0.000000000 -0.000000000  4.235457686    -0.000000000 -0.000000000  0.236101993

  length of vectors
     4.235457686  4.235457686  4.235457686     0.236101993  0.236101993  0.236101993


 FORCES acting on ions
    electron-ion (+dipol)            ewald-force                    non-local-force                 convergence-correction
 -----------------------------------------------------------------------------------------------
   -.355E-14 -.898E-15 -.610E-14   -.368E-14 -.975E-15 -.480E-14   -.565E-27 -.571E-27 -.542E-27   0.144E-13 -.828E-14 -.234E-13
   0.163E-12 0.105E-11 0.454E-11   0.164E-13 -.337E-14 0.535E-14   -.465E-26 0.169E-26 -.472E-26   0.346E-13 0.261E-13 0.274E-13
   0.177E-12 0.198E-11 0.114E-11   0.116E-14 0.281E-14 -.422E-14   0.119E-26 -.716E-27 -.589E-27   -.344E-14 0.473E-14 -.425E-13
   0.177E-12 -.322E-14 0.407E-11   -.237E-14 0.327E-14 0.153E-14   0.855E-27 0.838E-28 0.910E-27   -.694E-14 -.130E-13 -.262E-14
   -.440E-14 0.178E-12 0.168E-12   -.117E-13 -.258E-14 0.149E-14   -.393E-28 0.997E-27 -.968E-27   -.415E-14 0.164E-14 -.213E-14
 -----------------------------------------------------------------------------------------------
   0.509E-12 0.320E-11 0.992E-11   -.188E-15 -.843E-15 -.649E-15   -.321E-26 0.149E-26 -.591E-26   0.345E-13 0.112E-13 -.432E-13
 
 
 POSITION                                       TOTAL-FORCE (eV/Angst)
 -----------------------------------------------------------------------------------
      0.00000     -0.00000      0.00000         0.000000      0.000000      0.000000
      2.11773      2.11773      2.11773        -0.000000      0.000000      0.000000
      2.11773      2.11773      0.00000        -0.000000     -0.000000      0.000000
      2.11773     -0.00000      2.11773         0.000000      0.000000     -0.000000
     -0.00000      2.11773      2.11773         0.000000     -0.000000     -0.000000
 -----------------------------------------------------------------------------------
    total drift:                                0.000000      0.000000      0.000000


--------------------------------------------------------------------------------------------------------



  FREE ENERGIE OF THE ION-ELECTRON SYSTEM (eV)
  ---------------------------------------------------
  free  energy   TOTEN  =       -41.72970909 eV

  energy  without entropy=      -41.72970909  energy(sigma->0) =      -41.72970909
 
 d Force = 0.0000000E+00[ 0.000E+00, 0.000E+00]  d Energy = 0.3956316E-01-0.396E-01
 d Force = 0.0000000E+00[ 0.000E+00, 0.000E+00]  d Ewald  = 0.2955861E+02-0.296E+02


--------------------------------------------------------------------------------------------------------


    POTLOK:  cpu time      0.0874: real time      0.0880


--------------------------------------------------------------------------------------------------------


 stress matrix after NEB project (eV)
     -0.00983      0.00000     -0.00000
     -0.00000     -0.00983     -0.00000
      0.00000      0.00000     -0.00983
  FORCES: max atom, RMS     0.000000    0.000000
  FORCE total and by dimension    0.000000    0.000000
  Stress total and by dimension    0.017033    0.009834


--------------------------------------------------------------------------------------------------------


  
 reached required accuracy - stopping structural energy minimisation
 writing wavefunctions
     LOOP+:  cpu time    108.9482: real time    109.9260
    4ORBIT:  cpu time      0.0000: real time      0.0000

 total amount of memory used by VASP MPI-rank0    38001. kBytes
=======================================================================

   base      :      30000. kBytes
   nonlr-proj:       4430. kBytes
   fftplans  :        399. kBytes
   grid      :       2225. kBytes
   one-center:         77. kBytes
   wavefun   :        870. kBytes
 
  
  
 General timing and accounting informations for this job:
 ========================================================
  
                  Total CPU time used (sec):      438.046
                            User time (sec):      432.697
                          System time (sec):        5.349
                         Elapsed time (sec):      444.734
  
                   Maximum memory used (kb):     1267424.
                   Average memory used (kb):          N/A
  
                          Minor page faults:       209478
                          Major page faults:         1021
                 Voluntary context switches:         8788
