<?xml version="1.0" encoding="ISO-8859-1"?>
<modeling>
 <generator>
  <i name="program" type="string">vasp </i>
  <i name="version" type="string">6.4.3  </i>
  <i name="subversion" type="string">19Mar24 (build Jul 01 2024 12:12:31) complex                          parallel </i>
  <i name="platform" type="string">LinuxIFC </i>
  <i name="date" type="string">2025 11 29 </i>
  <i name="time" type="string">17:48:09 </i>
 </generator>
 <incar>
  <i type="string" name="SYSTEM">BaZrO3 SCF</i>
  <i type="string" name="PREC">Accurate</i>
  <i type="int" name="IBRION">     2</i>
  <i name="EDIFF">      0.00000010</i>
  <i name="EDIFFG">     -0.01000000</i>
  <i type="int" name="NSW">    50</i>
  <i type="int" name="ISIF">     3</i>
  <i name="ENCUT">    600.00000000</i>
  <i type="string" name="LREAL">Auto</i>
  <i type="int" name="ISMEAR">     0</i>
  <i name="SIGMA">      0.05000000</i>
  <i type="logical" name="LWAVE"> T  </i>
  <i type="logical" name="LCHARG"> T  </i>
  <i type="logical" name="LASPH"> T  </i>
  <i type="string" name="GGA">PE</i>
 </incar>
 <primitive_cell>
  <structure name="primitive_cell" >
   <crystal>
    <varray name="basis" >
     <v>       4.19200000       0.00000000       0.00000000 </v>
     <v>       0.00000000       4.19200000       0.00000000 </v>
     <v>       0.00000000       0.00000000       4.19200000 </v>
    </varray>
    <i name="volume">     73.66544589 </i>
    <varray name="rec_basis" >
     <v>       0.23854962       0.00000000       0.00000000 </v>
     <v>       0.00000000       0.23854962       0.00000000 </v>
     <v>       0.00000000       0.00000000       0.23854962 </v>
    </varray>
   </crystal>
   <varray name="positions" >
    <v>       0.00000000       0.00000000       0.00000000 </v>
    <v>       0.50000000       0.50000000       0.50000000 </v>
    <v>       0.50000000       0.50000000       0.00000000 </v>
    <v>       0.50000000       0.00000000       0.50000000 </v>
    <v>       0.00000000       0.50000000       0.50000000 </v>
   </varray>
  </structure>
  <varray name="primitive_index" >
   <v type="int" >        1 </v>
   <v type="int" >        2 </v>
   <v type="int" >        3 </v>
   <v type="int" >        4 </v>
   <v type="int" >        5 </v>
  </varray>
 </primitive_cell>
 <kpoints>
  <generation param="Gamma">
   <v type="int" name="divisions">       6        6        6 </v>
   <v name="usershift">      0.00000000       0.00000000       0.00000000 </v>
   <v name="genvec1">      0.16666667       0.00000000       0.00000000 </v>
   <v name="genvec2">      0.00000000       0.16666667       0.00000000 </v>
   <v name="genvec3">      0.00000000       0.00000000       0.16666667 </v>
   <v name="shift">      0.00000000       0.00000000       0.00000000 </v>
  </generation>
  <varray name="kpointlist" >
   <v>       0.00000000       0.00000000       0.00000000 </v>
   <v>       0.16666667       0.00000000       0.00000000 </v>
   <v>       0.33333333       0.00000000       0.00000000 </v>
   <v>       0.50000000       0.00000000       0.00000000 </v>
   <v>       0.16666667       0.16666667       0.00000000 </v>
   <v>       0.33333333       0.16666667       0.00000000 </v>
   <v>       0.50000000       0.16666667       0.00000000 </v>
   <v>       0.33333333       0.33333333       0.00000000 </v>
   <v>       0.50000000       0.33333333       0.00000000 </v>
   <v>       0.50000000       0.50000000       0.00000000 </v>
   <v>       0.16666667       0.16666667       0.16666667 </v>
   <v>       0.33333333       0.16666667       0.16666667 </v>
   <v>       0.50000000       0.16666667       0.16666667 </v>
   <v>       0.33333333       0.33333333       0.16666667 </v>
   <v>       0.50000000       0.33333333       0.16666667 </v>
   <v>       0.50000000       0.50000000       0.16666667 </v>
   <v>       0.33333333       0.33333333       0.33333333 </v>
   <v>       0.50000000       0.33333333       0.33333333 </v>
   <v>       0.50000000       0.50000000       0.33333333 </v>
   <v>       0.50000000       0.50000000       0.50000000 </v>
  </varray>
  <varray name="weights" >
   <v>       0.00462963 </v>
   <v>       0.02777778 </v>
   <v>       0.02777778 </v>
   <v>       0.01388889 </v>
   <v>       0.05555556 </v>
   <v>       0.11111111 </v>
   <v>       0.05555556 </v>
   <v>       0.05555556 </v>
   <v>       0.05555556 </v>
   <v>       0.01388889 </v>
   <v>       0.03703704 </v>
   <v>       0.11111111 </v>
   <v>       0.05555556 </v>
   <v>       0.11111111 </v>
   <v>       0.11111111 </v>
   <v>       0.02777778 </v>
   <v>       0.03703704 </v>
   <v>       0.05555556 </v>
   <v>       0.02777778 </v>
   <v>       0.00462963 </v>
  </varray>
 </kpoints>
 <parameters>
  <separator name="general" >
   <i type="string" name="SYSTEM">BaZrO3 SCF</i>
   <i type="logical" name="LCOMPAT"> F  </i>
  </separator>
  <separator name="electronic" >
   <i type="string" name="PREC">accura</i>
   <i name="ENMAX">    600.00000000</i>
   <i name="ENAUG">    605.39200000</i>
   <i name="EDIFF">      0.00000010</i>
   <i type="int" name="IALGO">    38</i>
   <i type="int" name="IWAVPR">    11</i>
   <i type="int" name="NBANDS">   160</i>
   <i type="int" name="NBANDSLOW">    -1</i>
   <i type="int" name="NBANDSHIGH">    -1</i>
   <i name="NELECT">     40.00000000</i>
   <i type="int" name="TURBO">     0</i>
   <i type="int" name="IRESTART">     0</i>
   <i type="int" name="NREBOOT">     0</i>
   <i type="int" name="NMIN">     0</i>
   <i name="EREF">      0.00000000</i>
   <separator name="electronic smearing" >
    <i type="int" name="ISMEAR">     0</i>
    <i name="SIGMA">      0.05000000</i>
    <i name="KSPACING">      0.50000000</i>
    <i type="logical" name="KGAMMA"> T  </i>
    <i type="logical" name="KBLOWUP"> T  </i>
   </separator>
   <separator name="electronic projectors" >
    <i type="logical" name="LREAL"> T  </i>
    <v name="ROPT">     -0.00025000     -0.00025000     -0.00025000</v>
    <i type="int" name="LMAXPAW">  -100</i>
    <i type="int" name="LMAXMIX">     2</i>
    <i type="logical" name="NLSPLINE"> F  </i>
   </separator>
   <separator name="electronic startup" >
    <i type="int" name="ISTART">     0</i>
    <i type="int" name="ICHARG">     2</i>
    <i type="int" name="INIWAV">     1</i>
   </separator>
   <separator name="electronic spin" >
    <i type="int" name="ISPIN">     1</i>
    <i type="logical" name="LNONCOLLINEAR"> F  </i>
    <v name="MAGMOM">      1.00000000      1.00000000      1.00000000      1.00000000      1.00000000</v>
    <i name="NUPDOWN">     -1.00000000</i>
    <i type="logical" name="LSORBIT"> F  </i>
    <v name="SAXIS">      0.00000000      0.00000000      1.00000000</v>
    <i type="logical" name="LSPIRAL"> F  </i>
    <v name="QSPIRAL">      0.00000000      0.00000000      0.00000000</v>
    <i type="logical" name="LZEROZ"> F  </i>
   </separator>
   <separator name="electronic exchange-correlation" >
    <i type="logical" name="LASPH"> T  </i>
   </separator>
   <separator name="electronic convergence" >
    <i type="int" name="NELM">    60</i>
    <i type="int" name="NELMDL">    -5</i>
    <i type="int" name="NELMIN">     2</i>
    <i name="ENINI">    600.00000000</i>
    <separator name="electronic convergence detail" >
     <i type="logical" name="LDIAG"> T  </i>
     <i type="logical" name="LSUBROT"> F  </i>
     <i name="WEIMIN">      0.00100000</i>
     <i name="EBREAK">      0.00000000</i>
     <i name="DEPER">      0.30000000</i>
     <i type="int" name="NRMM">     4</i>
     <i name="TIME">      0.40000000</i>
    </separator>
   </separator>
   <separator name="electronic mixer" >
    <i name="AMIX">      0.40000000</i>
    <i name="BMIX">      1.00000000</i>
    <i name="AMIN">      0.10000000</i>
    <i name="AMIX_MAG">      1.60000000</i>
    <i name="BMIX_MAG">      1.00000000</i>
    <separator name="electronic mixer details" >
     <i type="int" name="IMIX">     4</i>
     <i type="logical" name="MIXFIRST"> F  </i>
     <i type="int" name="MAXMIX">   -45</i>
     <i name="WC">    100.00000000</i>
     <i type="int" name="INIMIX">     1</i>
     <i type="int" name="MIXPRE">     1</i>
     <i type="int" name="MREMOVE">     5</i>
    </separator>
   </separator>
   <separator name="electronic dipolcorrection" >
    <i type="logical" name="LDIPOL"> F  </i>
    <i type="logical" name="LMONO"> F  </i>
    <i type="int" name="IDIPOL">     0</i>
    <i name="EPSILON">      1.00000000</i>
    <v name="DIPOL">   -100.00000000   -100.00000000   -100.00000000</v>
    <i name="EFIELD">      0.00000000</i>
    <i type="logical" name="LVACPOTAV"> F  </i>
   </separator>
  </separator>
  <separator name="grids" >
   <i type="int" name="NGX">    36</i>
   <i type="int" name="NGY">    36</i>
   <i type="int" name="NGZ">    36</i>
   <i type="int" name="NGXF">    72</i>
   <i type="int" name="NGYF">    72</i>
   <i type="int" name="NGZF">    72</i>
   <i type="logical" name="ADDGRID"> F  </i>
  </separator>
  <separator name="ionic" >
   <i type="int" name="NSW">    50</i>
   <i type="int" name="IBRION">     2</i>
   <i type="int" name="MDALGO">     0</i>
   <i type="int" name="ISIF">     3</i>
   <i name="PSTRESS">      0.00000000</i>
   <i name="EDIFFG">     -0.01000000</i>
   <i type="int" name="NFREE">     1</i>
   <i name="POTIM">      0.50000000</i>
   <i name="SMASS">     -3.00000000</i>
   <i name="SCALEE">      1.00000000</i>
  </separator>
  <separator name="ionic md" >
   <i name="TEBEG">      0.00010000</i>
   <i name="TEEND">      0.00010000</i>
   <i type="int" name="NBLOCK">     1</i>
   <i type="int" name="KBLOCK">    50</i>
   <i type="int" name="NPACO">   256</i>
   <i name="APACO">     10.00000000</i>
  </separator>
  <separator name="symmetry" >
   <i type="int" name="ISYM">     2</i>
   <i name="SYMPREC">      0.00001000</i>
  </separator>
  <separator name="dos" >
   <i type="int" name="LORBIT">     0</i>
   <v name="RWIGS">     -1.00000000     -1.00000000     -1.00000000</v>
   <i type="int" name="NEDOS">   301</i>
   <i name="EMIN">     10.00000000</i>
   <i name="EMAX">    -10.00000000</i>
   <i name="EFERMI">      0.00000000</i>
  </separator>
  <separator name="writing" >
   <i type="int" name="NWRITE">     2</i>
   <i type="logical" name="LWAVE"> T  </i>
   <i type="logical" name="LDOWNSAMPLE"> F  </i>
   <i type="logical" name="LCHARG"> T  </i>
   <i type="logical" name="LPARD"> F  </i>
   <i type="logical" name="LVTOT"> F  </i>
   <i type="logical" name="LVHAR"> F  </i>
   <i type="logical" name="LELF"> F  </i>
   <i type="logical" name="LOPTICS"> F  </i>
   <v name="STM">      0.00000000      0.00000000      0.00000000      0.00000000      0.00000000      0.00000000      0.00000000</v>
  </separator>
  <separator name="performance" >
   <i type="int" name="NPAR">   160</i>
   <i type="int" name="NSIM">     4</i>
   <i type="int" name="NBLK">    -1</i>
   <i type="logical" name="LPLANE"> T  </i>
   <i type="logical" name="LSCALAPACK"> T  </i>
   <i type="logical" name="LSCAAWARE"> T  </i>
   <i type="logical" name="LSCALU"> F  </i>
   <i type="logical" name="LASYNC"> F  </i>
   <i type="logical" name="LORBITALREAL"> F  </i>
  </separator>
  <separator name="miscellaneous" >
   <i type="int" name="IDIOT">     3</i>
   <i type="int" name="PHON_NSTRUCT">    -1</i>
   <i type="logical" name="LMUSIC"> F  </i>
   <v name="POMASS">    137.32700000     91.22400000     16.00000000</v>
   <v name="DARWINR">      0.00000000      0.00000000      0.00000000</v>
   <v name="DARWINV">      1.00000000      1.00000000      1.00000000</v>
   <i type="logical" name="LCORR"> T  </i>
  </separator>
  <i type="logical" name="GGA_COMPAT"> T  </i>
  <i type="logical" name="LBERRY"> F  </i>
  <i type="int" name="ICORELEVEL">     0</i>
  <i type="logical" name="LDAU"> F  </i>
  <i type="int" name="I_CONSTRAINED_M">     0</i>
  <separator name="electronic exchange-correlation" >
   <i type="string" name="GGA    ">PE</i>
   <i type="string" name="XC_C">1</i>
   <i type="int" name="VOSKOWN">     0</i>
   <i type="logical" name="LHFCALC"> F  </i>
   <i type="string" name="PRECFOCK"></i>
   <i type="logical" name="LSYMGRAD"> F  </i>
   <i type="logical" name="LHFONE"> F  </i>
   <i type="logical" name="LRHFCALC"> F  </i>
   <i type="logical" name="LTHOMAS"> F  </i>
   <i type="logical" name="LMODELHF"> F  </i>
   <i type="logical" name="LFOCKACE"> F  </i>
   <i name="ENCUT4O">     -1.00000000</i>
   <i type="int" name="EXXOEP">     0</i>
   <i type="int" name="FOURORBIT">     0</i>
   <i name="AEXX">      0.00000000</i>
   <i name="HFALPHA">      0.00000000</i>
   <i name="MCALPHA">      0.00000000</i>
   <i name="ALDAX">      1.00000000</i>
   <i name="AGGAX">      1.00000000</i>
   <i name="AMGGAX">      1.00000000</i>
   <i name="ALDAC">      1.00000000</i>
   <i name="AGGAC">      1.00000000</i>
   <i name="AMGGAC">      1.00000000</i>
   <i type="int" name="NKREDX">     1</i>
   <i type="int" name="NKREDY">     1</i>
   <i type="int" name="NKREDZ">     1</i>
   <i type="logical" name="SHIFTRED"> F  </i>
   <i type="logical" name="ODDONLY"> F  </i>
   <i type="logical" name="EVENONLY"> F  </i>
   <i type="int" name="LMAXFOCK">     0</i>
   <i type="int" name="NMAXFOCKAE">     0</i>
   <i type="logical" name="LFOCKAEDFT"> F  </i>
   <i name="HFSCREEN">      0.00000000</i>
   <i name="HFSCREENC">      0.00000000</i>
   <i type="int" name="NBANDSGWLOW">     0</i>
  </separator>
  <separator name="vdW DFT" >
   <i type="logical" name="LUSE_VDW"> F  </i>
   <i type="int" name="IVDW_NL">    -1</i>
   <i type="logical" name="LSPIN_VDW"> F  </i>
   <i name="ZAB_VDW">     -0.84910000</i>
   <i name="GAMMA_VDW">      1.39626340</i>
   <i name="ALPHA_VDW">      0.00000000</i>
   <i name="PARAM1">      0.12340000</i>
   <i name="PARAM2">      1.00000000</i>
   <i name="BPARAM">      6.30000000</i>
   <i name="CPARAM">      0.00930000</i>
  </separator>
  <separator name="model GW" >
   <i type="int" name="MODEL_GW">     0</i>
   <i name="MODEL_EPS0">      8.83985351</i>
   <i name="MODEL_ALPHA">      1.00000000</i>
  </separator>
  <separator name="linear response parameters" >
   <i type="logical" name="LEPSILON"> F  </i>
   <i type="logical" name="LRPA"> F  </i>
   <i type="logical" name="LNABLA"> F  </i>
   <i type="logical" name="LVEL"> F  </i>
   <i name="CSHIFT">      0.10000000</i>
   <i name="OMEGAMAX">     -1.00000000</i>
   <i name="DEG_THRESHOLD">      0.00200000</i>
   <i name="RTIME">     -0.10000000</i>
   <i name="WPLASMAI">      0.00000000</i>
   <v name="DFIELD">      0.00000000      0.00000000      0.00000000</v>
   <v name="WPLASMA">      0.00000000      0.00000000      0.00000000      0.00000000      0.00000000      0.00000000      0.00000000      0.00000000      0.00000000</v>
  </separator>
  <separator name="orbital magnetization" >
   <i type="logical" name="NUCIND"> F  </i>
   <v name="MAGPOS">      0.00000000      0.00000000      0.00000000</v>
   <i type="logical" name="LNICSALL"> T  </i>
   <i type="logical" name="ORBITALMAG"> F  </i>
   <i type="logical" name="LMAGBLOCH"> F  </i>
   <i type="logical" name="LCHIMAG"> F  </i>
   <i type="logical" name="LGAUGE"> T  </i>
   <i type="int" name="MAGATOM">     0</i>
   <v name="MAGDIPOL">      0.00000000      0.00000000      0.00000000</v>
   <v name="AVECCONST">      0.00000000      0.00000000      0.00000000</v>
  </separator>
  <separator name="response functions" >
   <i type="logical" name="LALL_IN_ONE"> F  </i>
   <i type="int" name="IALL_IN_ONE">    -1</i>
   <i type="int" name="NBANDS_WAVE">    -1</i>
   <i type="logical" name="LFINITE_TEMPERATURE"> F  </i>
   <i type="logical" name="LADDER"> F  </i>
   <i type="logical" name="LRPAFORCE"> F  </i>
   <i type="logical" name="LFXC"> F  </i>
   <i type="logical" name="LHARTREE"> T  </i>
   <i type="int" name="IBSE">     0</i>
   <v type="int" name="KPOINT">    -1     0     0     0</v>
   <i type="logical" name="LTCTC"> F  </i>
   <i type="logical" name="LTCTE"> F  </i>
   <i type="logical" name="LTETE"> F  </i>
   <i type="logical" name="LTRIPLET"> F  </i>
   <i type="logical" name="LFXCEPS"> F  </i>
   <i type="logical" name="LFXHEG"> F  </i>
   <i type="int" name="NATURALO">     2</i>
   <i type="logical" name="LHOLEGF"> F  </i>
   <i type="logical" name="L2ORDER"> F  </i>
   <i type="logical" name="LDMP1"> F  </i>
   <i type="logical" name="LMP2LT"> F  </i>
   <i type="logical" name="LSMP2LT"> F  </i>
   <i type="logical" name="LGWLF"> F  </i>
   <i name="ENCUTGW">     -1.60000002</i>
   <i name="ENCUTGWSOFT">     -1.60000002</i>
   <i name="ENCUTLF">     -1.00000000</i>
   <i type="logical" name="ESF_SPLINES"> F  </i>
   <i name="ESF_CONV">      0.01000000</i>
   <i type="int" name="ESF_NINTER">    15</i>
   <i type="int" name="LMAXMP2">    -1</i>
   <i name="SCISSOR">      0.00000000</i>
   <i type="int" name="NOMEGA">     0</i>
   <i type="int" name="NOMEGAR">     0</i>
   <i type="int" name="NBANDSGW">    -1</i>
   <i type="int" name="NBANDSO">    -1</i>
   <i type="int" name="NBANDSV">    -1</i>
   <i type="int" name="NELMGW">     1</i>
   <i type="int" name="NELMHF">     1</i>
   <i type="int" name="DIM">     3</i>
   <i type="int" name="IESPILON">     4</i>
   <i type="int" name="ANTIRES">     0</i>
   <i name="OMEGAMAX">    -30.00000000</i>
   <i name="OMEGAMIN">    -30.00000000</i>
   <i name="OMEGATL">   -200.00000000</i>
   <i type="int" name="OMEGAGRID">     0</i>
   <i name="CSHIFT">     -0.10000000</i>
   <i type="logical" name="LSELFENERGY"> F  </i>
   <i type="logical" name="LSPECTRAL"> F  </i>
   <i type="logical" name="LSPECTRALGW"> F  </i>
   <i type="logical" name="LSINGLES"> F  </i>
   <i type="logical" name="LFERMIGW"> F  </i>
   <i type="logical" name="ODDONLYGW"> F  </i>
   <i type="logical" name="EVENONLYGW"> F  </i>
   <i type="int" name="NKREDLFX">     1</i>
   <i type="int" name="NKREDLFY">     1</i>
   <i type="int" name="NKREDLFZ">     1</i>
   <i type="int" name="MAXMEM">  2800</i>
   <i type="int" name="TELESCOPE">     0</i>
   <i type="int" name="NTAUPAR">    -1</i>
   <i type="int" name="NOMEGAPAR">    -1</i>
   <i name="DAMP_NEWTON">      0.80000001</i>
   <i name="LAMBDA">      1.00000000</i>
  </separator>
  <separator name="External order field" >
   <i name="OFIELD_KAPPA">      0.00000000</i>
   <v name="OFIELD_K">      0.00000000      0.00000000      0.00000000</v>
   <i name="OFIELD_Q6_NEAR">      0.00000000</i>
   <i name="OFIELD_Q6_FAR">      0.00000000</i>
   <i name="OFIELD_A">      0.00000000</i>
  </separator>
  <separator name="optional k-points parameters" >
   <i type="int" name="KPOINTS_OPT_MODE">     1</i>
   <i type="logical" name="LKPOINTS_OPT"> F  </i>
  </separator>
 </parameters>
 <atominfo>
  <atoms>       5 </atoms>
  <types>       3 </types>
  <array name="atoms" >
   <dimension dim="1">ion</dimension>
   <field type="string">element</field>
   <field type="int">atomtype</field>
   <set>
    <rc><c>Ba</c><c>   1</c></rc>
    <rc><c>Zr</c><c>   2</c></rc>
    <rc><c>O </c><c>   3</c></rc>
    <rc><c>O </c><c>   3</c></rc>
    <rc><c>O </c><c>   3</c></rc>
   </set>
  </array>
  <array name="atomtypes" >
   <dimension dim="1">type</dimension>
   <field type="int">atomspertype</field>
   <field type="string">element</field>
   <field>mass</field>
   <field>valence</field>
   <field type="string">pseudopotential</field>
   <set>
    <rc><c>   1</c><c>Ba</c><c>    137.32700000</c><c>     10.00000000</c><c>  PAW_PBE Ba_sv 06Sep2000               </c></rc>
    <rc><c>   1</c><c>Zr</c><c>     91.22400000</c><c>     12.00000000</c><c>  PAW_PBE Zr_sv 04Jan2005               </c></rc>
    <rc><c>   3</c><c>O </c><c>     16.00000000</c><c>      6.00000000</c><c>  PAW_PBE O 08Apr2002                   </c></rc>
   </set>
  </array>
 </atominfo>
 <structure name="initialpos" >
  <crystal>
   <varray name="basis" >
    <v>       4.19200000       0.00000000       0.00000000 </v>
    <v>       0.00000000       4.19200000       0.00000000 </v>
    <v>       0.00000000       0.00000000       4.19200000 </v>
   </varray>
   <i name="volume">     73.66544589 </i>
   <varray name="rec_basis" >
    <v>       0.23854962       0.00000000       0.00000000 </v>
    <v>       0.00000000       0.23854962       0.00000000 </v>
    <v>       0.00000000       0.00000000       0.23854962 </v>
   </varray>
  </crystal>
  <varray name="positions" >
   <v>       0.00000000       0.00000000       0.00000000 </v>
   <v>       0.50000000       0.50000000       0.50000000 </v>
   <v>       0.50000000       0.50000000       0.00000000 </v>
   <v>       0.50000000       0.00000000       0.50000000 </v>
   <v>       0.00000000       0.50000000       0.50000000 </v>
  </varray>
 </structure>
 <calculation>
  <scstep>
   <time name="dav">    7.76    8.00</time>
   <time name="total">    7.90    8.16</time>
   <energy>
    <i name="alphaZ">    240.34259355 </i>
    <i name="ewald">  -2693.37944630 </i>
    <i name="hartreedc">   -682.79388567 </i>
    <i name="XCdc">    159.34887558 </i>
    <i name="pawpsdc">   2561.05225630 </i>
    <i name="pawaedc">  -2544.85325127 </i>
    <i name="eentropy">     -0.00000000 </i>
    <i name="bandstr">   -311.51080917 </i>
    <i name="atom">   3282.16168129 </i>
    <i name="e_fr_energy">     10.36801432 </i>
    <i name="e_wo_entrp">     10.36801432 </i>
    <i name="e_0_energy">     10.36801432 </i>
   </energy>
  </scstep>
  <scstep>
   <time name="dav">   16.66   16.80</time>
   <time name="total">   16.66   16.81</time>
   <energy>
    <i name="e_fr_energy">    -49.24255478 </i>
    <i name="e_wo_entrp">    -49.24255478 </i>
    <i name="e_0_energy">    -49.24255478 </i>
   </energy>
  </scstep>
  <scstep>
   <time name="dav">    6.86    6.92</time>
   <time name="total">    6.86    6.92</time>
   <energy>
    <i name="e_fr_energy">    -49.26484281 </i>
    <i name="e_wo_entrp">    -49.26484281 </i>
    <i name="e_0_energy">    -49.26484281 </i>
   </energy>
  </scstep>
  <scstep>
   <time name="dav">   32.50   32.78</time>
   <time name="total">   32.51   32.78</time>
   <energy>
    <i name="e_fr_energy">    -49.26484775 </i>
    <i name="e_wo_entrp">    -49.26484775 </i>
    <i name="e_0_energy">    -49.26484775 </i>
   </energy>
  </scstep>
  <scstep>
   <time name="dav">    7.15    7.22</time>
   <time name="total">    7.19    7.26</time>
   <energy>
    <i name="e_fr_energy">    -49.26484775 </i>
    <i name="e_wo_entrp">    -49.26484775 </i>
    <i name="e_0_energy">    -49.26484775 </i>
   </energy>
  </scstep>
  <scstep>
   <time name="dav">   18.32   18.47</time>
   <time name="total">   18.46   18.68</time>
   <energy>
    <i name="e_fr_energy">    -42.03550141 </i>
    <i name="e_wo_entrp">    -42.03550141 </i>
    <i name="e_0_energy">    -42.03550141 </i>
   </energy>
  </scstep>
  <scstep>
   <time name="dav">   15.36   15.48</time>
   <time name="total">   15.50   15.66</time>
   <energy>
    <i name="e_fr_energy">    -41.73200668 </i>
    <i name="e_wo_entrp">    -41.73200668 </i>
    <i name="e_0_energy">    -41.73200668 </i>
   </energy>
  </scstep>
  <scstep>
   <time name="dav">   22.15   22.31</time>
   <time name="total">   22.28   22.48</time>
   <energy>
    <i name="e_fr_energy">    -41.70051969 </i>
    <i name="e_wo_entrp">    -41.70051969 </i>
    <i name="e_0_energy">    -41.70051969 </i>
   </energy>
  </scstep>
  <scstep>
   <time name="dav">   11.95   12.05</time>
   <time name="total">   12.08   12.20</time>
   <energy>
    <i name="e_fr_energy">    -41.70252440 </i>
    <i name="e_wo_entrp">    -41.70252440 </i>
    <i name="e_0_energy">    -41.70252440 </i>
   </energy>
  </scstep>
  <scstep>
   <time name="dav">   16.52   16.66</time>
   <time name="total">   16.65   16.80</time>
   <energy>
    <i name="e_fr_energy">    -41.69511223 </i>
    <i name="e_wo_entrp">    -41.69511223 </i>
    <i name="e_0_energy">    -41.69511223 </i>
   </energy>
  </scstep>
  <scstep>
   <time name="dav">   15.33   15.46</time>
   <time name="total">   15.47   15.60</time>
   <energy>
    <i name="e_fr_energy">    -41.69531304 </i>
    <i name="e_wo_entrp">    -41.69531304 </i>
    <i name="e_0_energy">    -41.69531304 </i>
   </energy>
  </scstep>
  <scstep>
   <time name="dav">   17.06   17.19</time>
   <time name="total">   17.19   17.34</time>
   <energy>
    <i name="e_fr_energy">    -41.69532314 </i>
    <i name="e_wo_entrp">    -41.69532314 </i>
    <i name="e_0_energy">    -41.69532314 </i>
   </energy>
  </scstep>
  <scstep>
   <time name="dav">    9.81    9.89</time>
   <time name="total">    9.95   10.04</time>
   <energy>
    <i name="e_fr_energy">    -41.69532322 </i>
    <i name="e_wo_entrp">    -41.69532322 </i>
    <i name="e_0_energy">    -41.69532322 </i>
   </energy>
  </scstep>
  <scstep>
   <time name="dav">   17.33   17.46</time>
   <time name="total">   17.45   17.59</time>
   <energy>
    <i name="alphaZ">    240.34259355 </i>
    <i name="ewald">  -2693.37944630 </i>
    <i name="hartreedc">   -710.89628363 </i>
    <i name="XCdc">    161.77394178 </i>
    <i name="pawpsdc">   4600.10255105 </i>
    <i name="pawaedc">  -4586.92334139 </i>
    <i name="eentropy">     -0.00000000 </i>
    <i name="bandstr">   -334.87701967 </i>
    <i name="atom">   3282.16168129 </i>
    <i name="e_fr_energy">    -41.69532332 </i>
    <i name="e_wo_entrp">    -41.69532332 </i>
    <i name="e_0_energy">    -41.69532332 </i>
   </energy>
  </scstep>
  <structure>
   <crystal>
    <varray name="basis" >
     <v>       4.19200000       0.00000000       0.00000000 </v>
     <v>       0.00000000       4.19200000       0.00000000 </v>
     <v>       0.00000000       0.00000000       4.19200000 </v>
    </varray>
    <i name="volume">     73.66544589 </i>
    <varray name="rec_basis" >
     <v>       0.23854962       0.00000000       0.00000000 </v>
     <v>       0.00000000       0.23854962       0.00000000 </v>
     <v>       0.00000000       0.00000000       0.23854962 </v>
    </varray>
   </crystal>
   <varray name="positions" >
    <v>       0.00000000       0.00000000       0.00000000 </v>
    <v>       0.50000000       0.50000000       0.50000000 </v>
    <v>       0.50000000       0.50000000       0.00000000 </v>
    <v>       0.50000000       0.00000000       0.50000000 </v>
    <v>       0.00000000       0.50000000       0.50000000 </v>
   </varray>
  </structure>
  <varray name="forces" >
   <v>       0.00000000      -0.00000000       0.00000000 </v>
   <v>      -0.00000000       0.00000000      -0.00000000 </v>
   <v>      -0.00000000       0.00000000       0.00000000 </v>
   <v>       0.00000000      -0.00000000      -0.00000000 </v>
   <v>      -0.00000000      -0.00000000       0.00000000 </v>
  </varray>
  <varray name="stress" >
   <v>      48.90566609      -0.00000000       0.00000000 </v>
   <v>      -0.00000000      48.90566609       0.00000000 </v>
   <v>      -0.00000000      -0.00000000      48.90566609 </v>
  </varray>
  <energy>
   <i name="e_fr_energy">    -41.69532332 </i>
   <i name="e_wo_entrp">    -41.69532332 </i>
   <i name="e_0_energy">    -41.69532332 </i>
  </energy>
  <time name="totalsc">  217.28  219.47</time>
 </calculation>
 <calculation>
  <scstep>
   <time name="dav">   12.08   12.18</time>
   <time name="total">   12.18   12.29</time>
   <energy>
    <i name="alphaZ">    225.35440441 </i>
    <i name="ewald">  -2636.18556316 </i>
    <i name="hartreedc">   -695.80112930 </i>
    <i name="XCdc">    158.48723286 </i>
    <i name="pawpsdc">   4600.05192980 </i>
    <i name="pawaedc">  -4586.87265638 </i>
    <i name="eentropy">     -0.00000000 </i>
    <i name="bandstr">   -390.01026736 </i>
    <i name="atom">   3282.16168129 </i>
    <i name="e_fr_energy">    -42.81436785 </i>
    <i name="e_wo_entrp">    -42.81436785 </i>
    <i name="e_0_energy">    -42.81436785 </i>
   </energy>
  </scstep>
  <scstep>
   <time name="dav">    8.12    8.18</time>
   <time name="total">    8.25    8.33</time>
   <energy>
    <i name="e_fr_energy">    -41.82490145 </i>
    <i name="e_wo_entrp">    -41.82490145 </i>
    <i name="e_0_energy">    -41.82490145 </i>
   </energy>
  </scstep>
  <scstep>
   <time name="dav">   11.54   11.63</time>
   <time name="total">   11.67   11.78</time>
   <energy>
    <i name="e_fr_energy">    -41.68955036 </i>
    <i name="e_wo_entrp">    -41.68955036 </i>
    <i name="e_0_energy">    -41.68955036 </i>
   </energy>
  </scstep>
  <scstep>
   <time name="dav">   10.26   10.35</time>
   <time name="total">   10.40   10.49</time>
   <energy>
    <i name="e_fr_energy">    -41.67919067 </i>
    <i name="e_wo_entrp">    -41.67919067 </i>
    <i name="e_0_energy">    -41.67919067 </i>
   </energy>
  </scstep>
  <scstep>
   <time name="dav">   10.36   10.45</time>
   <time name="total">   10.49   10.59</time>
   <energy>
    <i name="e_fr_energy">    -41.68969969 </i>
    <i name="e_wo_entrp">    -41.68969969 </i>
    <i name="e_0_energy">    -41.68969969 </i>
   </energy>
  </scstep>
  <scstep>
   <time name="dav">   12.06   12.16</time>
   <time name="total">   12.20   12.31</time>
   <energy>
    <i name="e_fr_energy">    -41.69013569 </i>
    <i name="e_wo_entrp">    -41.69013569 </i>
    <i name="e_0_energy">    -41.69013569 </i>
   </energy>
  </scstep>
  <scstep>
   <time name="dav">   17.36   17.50</time>
   <time name="total">   17.50   17.66</time>
   <energy>
    <i name="e_fr_energy">    -41.69014266 </i>
    <i name="e_wo_entrp">    -41.69014266 </i>
    <i name="e_0_energy">    -41.69014266 </i>
   </energy>
  </scstep>
  <scstep>
   <time name="dav">    6.87    6.92</time>
   <time name="total">    7.00    7.06</time>
   <energy>
    <i name="e_fr_energy">    -41.69014585 </i>
    <i name="e_wo_entrp">    -41.69014585 </i>
    <i name="e_0_energy">    -41.69014585 </i>
   </energy>
  </scstep>
  <scstep>
   <time name="dav">   15.89   16.01</time>
   <time name="total">   16.00   16.14</time>
   <energy>
    <i name="alphaZ">    225.35440441 </i>
    <i name="ewald">  -2636.18556316 </i>
    <i name="hartreedc">   -731.02579173 </i>
    <i name="XCdc">    160.74863545 </i>
    <i name="pawpsdc">   4147.15688201 </i>
    <i name="pawaedc">  -4134.46290293 </i>
    <i name="eentropy">     -0.00000000 </i>
    <i name="bandstr">   -355.43749126 </i>
    <i name="atom">   3282.16168129 </i>
    <i name="e_fr_energy">    -41.69014592 </i>
    <i name="e_wo_entrp">    -41.69014592 </i>
    <i name="e_0_energy">    -41.69014592 </i>
   </energy>
  </scstep>
  <structure>
   <crystal>
    <varray name="basis" >
     <v>       4.28294836      -0.00000000       0.00000000 </v>
     <v>      -0.00000000       4.28294836       0.00000000 </v>
     <v>      -0.00000000      -0.00000000       4.28294836 </v>
    </varray>
    <i name="volume">     78.56489145 </i>
    <varray name="rec_basis" >
     <v>       0.23348402       0.00000000       0.00000000 </v>
     <v>       0.00000000       0.23348402       0.00000000 </v>
     <v>      -0.00000000      -0.00000000       0.23348402 </v>
    </varray>
   </crystal>
   <varray name="positions" >
    <v>       0.00000000       1.00000000       0.00000000 </v>
    <v>       0.50000000       0.50000000       0.50000000 </v>
    <v>       0.50000000       0.50000000       0.00000000 </v>
    <v>       0.50000000       1.00000000       0.50000000 </v>
    <v>       1.00000000       0.50000000       0.50000000 </v>
   </varray>
  </structure>
  <varray name="forces" >
   <v>      -0.00000000      -0.00000000      -0.00000000 </v>
   <v>      -0.00000000      -0.00000000      -0.00000000 </v>
   <v>       0.00000000       0.00000000      -0.00000000 </v>
   <v>       0.00000000      -0.00000000       0.00000000 </v>
   <v>      -0.00000000       0.00000000       0.00000000 </v>
  </varray>
  <varray name="stress" >
   <v>     -47.31525557      -0.00000000       0.00000000 </v>
   <v>       0.00000000     -47.31525557      -0.00000000 </v>
   <v>       0.00000000      -0.00000000     -47.31525557 </v>
  </varray>
  <energy>
   <i name="e_fr_energy">    -41.69014592 </i>
   <i name="e_wo_entrp">    -41.69014592 </i>
   <i name="e_0_energy">    -41.69014592 </i>
  </energy>
  <time name="totalsc">  106.46  107.42</time>
 </calculation>
 <calculation>
  <scstep>
   <time name="dav">   11.63   11.72</time>
   <time name="total">   11.74   11.83</time>
   <energy>
    <i name="alphaZ">    233.02017453 </i>
    <i name="ewald">  -2665.74417091 </i>
    <i name="hartreedc">   -739.22359916 </i>
    <i name="XCdc">    162.47320009 </i>
    <i name="pawpsdc">   4147.27107362 </i>
    <i name="pawaedc">  -4134.57629007 </i>
    <i name="eentropy">     -0.00000000 </i>
    <i name="bandstr">   -327.41746093 </i>
    <i name="atom">   3282.16168129 </i>
    <i name="e_fr_energy">    -42.03539155 </i>
    <i name="e_wo_entrp">    -42.03539155 </i>
    <i name="e_0_energy">    -42.03539155 </i>
   </energy>
  </scstep>
  <scstep>
   <time name="dav">    9.83    9.91</time>
   <time name="total">    9.97   10.06</time>
   <energy>
    <i name="e_fr_energy">    -41.76805728 </i>
    <i name="e_wo_entrp">    -41.76805728 </i>
    <i name="e_0_energy">    -41.76805728 </i>
   </energy>
  </scstep>
  <scstep>
   <time name="dav">    9.49    9.57</time>
   <time name="total">    9.62    9.71</time>
   <energy>
    <i name="e_fr_energy">    -41.72976500 </i>
    <i name="e_wo_entrp">    -41.72976500 </i>
    <i name="e_0_energy">    -41.72976500 </i>
   </energy>
  </scstep>
  <scstep>
   <time name="dav">   10.31   10.39</time>
   <time name="total">   10.44   10.54</time>
   <energy>
    <i name="e_fr_energy">    -41.72688602 </i>
    <i name="e_wo_entrp">    -41.72688602 </i>
    <i name="e_0_energy">    -41.72688602 </i>
   </energy>
  </scstep>
  <scstep>
   <time name="dav">    8.66    8.73</time>
   <time name="total">    8.79    8.87</time>
   <energy>
    <i name="e_fr_energy">    -41.72941973 </i>
    <i name="e_wo_entrp">    -41.72941973 </i>
    <i name="e_0_energy">    -41.72941973 </i>
   </energy>
  </scstep>
  <scstep>
   <time name="dav">   17.43   17.56</time>
   <time name="total">   17.56   17.71</time>
   <energy>
    <i name="e_fr_energy">    -41.72970195 </i>
    <i name="e_wo_entrp">    -41.72970195 </i>
    <i name="e_0_energy">    -41.72970195 </i>
   </energy>
  </scstep>
  <scstep>
   <time name="dav">    9.87    9.95</time>
   <time name="total">   10.00   10.09</time>
   <energy>
    <i name="e_fr_energy">    -41.72970908 </i>
    <i name="e_wo_entrp">    -41.72970908 </i>
    <i name="e_0_energy">    -41.72970908 </i>
   </energy>
  </scstep>
  <scstep>
   <time name="dav">    8.14    8.20</time>
   <time name="total">    8.27    8.35</time>
   <energy>
    <i name="e_fr_energy">    -41.72970890 </i>
    <i name="e_wo_entrp">    -41.72970890 </i>
    <i name="e_0_energy">    -41.72970890 </i>
   </energy>
  </scstep>
  <scstep>
   <time name="dav">    9.33    9.41</time>
   <time name="total">    9.47    9.55</time>
   <energy>
    <i name="e_fr_energy">    -41.72970914 </i>
    <i name="e_wo_entrp">    -41.72970914 </i>
    <i name="e_0_energy">    -41.72970914 </i>
   </energy>
  </scstep>
  <scstep>
   <time name="dav">   11.86   11.95</time>
   <time name="total">   11.98   12.08</time>
   <energy>
    <i name="alphaZ">    233.02017453 </i>
    <i name="ewald">  -2665.74417091 </i>
    <i name="hartreedc">   -720.49362449 </i>
    <i name="XCdc">    161.27190265 </i>
    <i name="pawpsdc">   4368.51836267 </i>
    <i name="pawaedc">  -4355.58078403 </i>
    <i name="eentropy">     -0.00000000 </i>
    <i name="bandstr">   -344.88325080 </i>
    <i name="atom">   3282.16168129 </i>
    <i name="e_fr_energy">    -41.72970909 </i>
    <i name="e_wo_entrp">    -41.72970909 </i>
    <i name="e_0_energy">    -41.72970909 </i>
   </energy>
  </scstep>
  <structure>
   <crystal>
    <varray name="basis" >
     <v>       4.23545769      -0.00000000       0.00000000 </v>
     <v>      -0.00000000       4.23545769       0.00000000 </v>
     <v>      -0.00000000      -0.00000000       4.23545769 </v>
    </varray>
    <i name="volume">     75.98030667 </i>
    <varray name="rec_basis" >
     <v>       0.23610199       0.00000000       0.00000000 </v>
     <v>       0.00000000       0.23610199       0.00000000 </v>
     <v>      -0.00000000      -0.00000000       0.23610199 </v>
    </varray>
   </crystal>
   <varray name="positions" >
    <v>       0.00000000       0.00000000       0.00000000 </v>
    <v>       0.50000000       0.50000000       0.50000000 </v>
    <v>       0.50000000       0.50000000       0.00000000 </v>
    <v>       0.50000000       0.00000000       0.50000000 </v>
    <v>       0.00000000       0.50000000       0.50000000 </v>
   </varray>
  </structure>
  <varray name="forces" >
   <v>       0.00000000       0.00000000       0.00000000 </v>
   <v>      -0.00000000       0.00000000       0.00000000 </v>
   <v>      -0.00000000      -0.00000000       0.00000000 </v>
   <v>       0.00000000       0.00000000      -0.00000000 </v>
   <v>       0.00000000      -0.00000000      -0.00000000 </v>
  </varray>
  <varray name="stress" >
   <v>      -0.20736599       0.00000000      -0.00000000 </v>
   <v>      -0.00000000      -0.20736599      -0.00000000 </v>
   <v>       0.00000000       0.00000000      -0.20736599 </v>
  </varray>
  <energy>
   <i name="e_fr_energy">    -41.72970909 </i>
   <i name="e_wo_entrp">    -41.72970909 </i>
   <i name="e_0_energy">    -41.72970909 </i>
  </energy>
  <time name="totalsc">  108.95  109.93</time>
  <eigenvalues>
   <array>
    <dimension dim="1">band</dimension>
    <dimension dim="2">kpoint</dimension>
    <dimension dim="3">spin</dimension>
    <field>eigene</field>
    <field>occ</field>
    <set>
     <set comment="spin 1">
      <set comment="kpoint 1">
       <r>  -43.6483    1.0000 </r>
       <r>  -21.8456    1.0000 </r>
       <r>  -21.7683    1.0000 </r>
       <r>  -21.7683    1.0000 </r>
       <r>  -21.7683    1.0000 </r>
       <r>  -12.7497    1.0000 </r>
       <r>  -12.4511    1.0000 </r>
       <r>  -12.4511    1.0000 </r>
       <r>   -6.9766    1.0000 </r>
       <r>   -6.9766    1.0000 </r>
       <r>   -6.9766    1.0000 </r>
       <r>    2.0715    1.0000 </r>
       <r>    2.0715    1.0000 </r>
       <r>    2.0715    1.0000 </r>
       <r>    2.6265    1.0000 </r>
       <r>    2.6265    1.0000 </r>
       <r>    2.6265    1.0000 </r>
       <r>    3.3099    1.0000 </r>
       <r>    3.3099    1.0000 </r>
       <r>    3.3099    1.0000 </r>
       <r>    6.6868    0.0000 </r>
       <r>    6.6868    0.0000 </r>
       <r>    6.6868    0.0000 </r>
       <r>    8.1807    0.0000 </r>
       <r>    8.1807    0.0000 </r>
       <r>    9.2058    0.0000 </r>
       <r>   10.6864    0.0000 </r>
       <r>   10.6864    0.0000 </r>
       <r>   11.8552    0.0000 </r>
       <r>   11.8552    0.0000 </r>
       <r>   11.8552    0.0000 </r>
       <r>   18.5280    0.0000 </r>
       <r>   18.5280    0.0000 </r>
       <r>   18.5280    0.0000 </r>
       <r>   18.5354    0.0000 </r>
       <r>   20.9477    0.0000 </r>
       <r>   22.2525    0.0000 </r>
       <r>   22.2525    0.0000 </r>
       <r>   22.2525    0.0000 </r>
       <r>   23.8908    0.0000 </r>
       <r>   23.8908    0.0000 </r>
       <r>   26.4261    0.0000 </r>
       <r>   26.4261    0.0000 </r>
       <r>   26.4261    0.0000 </r>
       <r>   27.7176    0.0000 </r>
       <r>   27.7176    0.0000 </r>
       <r>   27.7176    0.0000 </r>
       <r>   31.1851    0.0000 </r>
       <r>   31.1851    0.0000 </r>
       <r>   31.1851    0.0000 </r>
       <r>   31.3372    0.0000 </r>
       <r>   31.3372    0.0000 </r>
       <r>   31.6639    0.0000 </r>
       <r>   31.6639    0.0000 </r>
       <r>   31.6639    0.0000 </r>
       <r>   32.4123    0.0000 </r>
       <r>   33.3609    0.0000 </r>
       <r>   33.3609    0.0000 </r>
       <r>   33.3609    0.0000 </r>
       <r>   36.4252    0.0000 </r>
       <r>   36.4252    0.0000 </r>
       <r>   36.4252    0.0000 </r>
       <r>   36.8623    0.0000 </r>
       <r>   37.7514    0.0000 </r>
       <r>   37.8229    0.0000 </r>
       <r>   38.8899    0.0000 </r>
       <r>   38.8899    0.0000 </r>
       <r>   38.8899    0.0000 </r>
       <r>   39.6615    0.0000 </r>
       <r>   39.6615    0.0000 </r>
       <r>   41.0675    0.0000 </r>
       <r>   41.0675    0.0000 </r>
       <r>   41.0675    0.0000 </r>
       <r>   42.4147    0.0000 </r>
       <r>   42.4147    0.0000 </r>
       <r>   42.4147    0.0000 </r>
       <r>   44.4304    0.0000 </r>
       <r>   44.4304    0.0000 </r>
       <r>   44.4304    0.0000 </r>
       <r>   45.7241    0.0000 </r>
       <r>   45.7241    0.0000 </r>
       <r>   45.7241    0.0000 </r>
       <r>   47.8555    0.0000 </r>
       <r>   47.8555    0.0000 </r>
       <r>   48.1629    0.0000 </r>
       <r>   48.1629    0.0000 </r>
       <r>   49.1856    0.0000 </r>
       <r>   49.1856    0.0000 </r>
       <r>   49.1856    0.0000 </r>
       <r>   51.5607    0.0000 </r>
       <r>   51.5607    0.0000 </r>
       <r>   51.5607    0.0000 </r>
       <r>   52.8071    0.0000 </r>
       <r>   52.8071    0.0000 </r>
       <r>   52.8071    0.0000 </r>
       <r>   55.1216    0.0000 </r>
       <r>   57.7142    0.0000 </r>
       <r>   57.7142    0.0000 </r>
       <r>   57.7142    0.0000 </r>
       <r>   58.1597    0.0000 </r>
       <r>   58.1799    0.0000 </r>
       <r>   58.1799    0.0000 </r>
       <r>   58.1799    0.0000 </r>
       <r>   58.1972    0.0000 </r>
       <r>   58.1972    0.0000 </r>
       <r>   58.2255    0.0000 </r>
       <r>   58.2255    0.0000 </r>
       <r>   58.2255    0.0000 </r>
       <r>   58.7028    0.0000 </r>
       <r>   63.5149    0.0000 </r>
       <r>   63.5149    0.0000 </r>
       <r>   64.3920    0.0000 </r>
       <r>   66.0501    0.0000 </r>
       <r>   66.0501    0.0000 </r>
       <r>   66.0501    0.0000 </r>
       <r>   67.0029    0.0000 </r>
       <r>   67.0029    0.0000 </r>
       <r>   67.0029    0.0000 </r>
       <r>   67.7935    0.0000 </r>
       <r>   67.7935    0.0000 </r>
       <r>   67.7935    0.0000 </r>
       <r>   68.2829    0.0000 </r>
       <r>   68.2829    0.0000 </r>
       <r>   70.4266    0.0000 </r>
       <r>   70.7257    0.0000 </r>
       <r>   70.7257    0.0000 </r>
       <r>   70.7257    0.0000 </r>
       <r>   70.7320    0.0000 </r>
       <r>   70.7320    0.0000 </r>
       <r>   70.7320    0.0000 </r>
       <r>   71.1334    0.0000 </r>
       <r>   71.1334    0.0000 </r>
       <r>   71.2991    0.0000 </r>
       <r>   71.2991    0.0000 </r>
       <r>   71.2991    0.0000 </r>
       <r>   71.9557    0.0000 </r>
       <r>   71.9557    0.0000 </r>
       <r>   71.9557    0.0000 </r>
       <r>   75.5525    0.0000 </r>
       <r>   75.5525    0.0000 </r>
       <r>   76.1678    0.0000 </r>
       <r>   76.1678    0.0000 </r>
       <r>   76.1678    0.0000 </r>
       <r>   76.2414    0.0000 </r>
       <r>   76.6993    0.0000 </r>
       <r>   76.6993    0.0000 </r>
       <r>   76.6993    0.0000 </r>
       <r>   77.5073    0.0000 </r>
       <r>   77.5073    0.0000 </r>
       <r>   77.5073    0.0000 </r>
       <r>   79.9176    0.0000 </r>
       <r>   79.9176    0.0000 </r>
       <r>   81.0855    0.0000 </r>
       <r>   81.8268    0.0000 </r>
       <r>   81.8268    0.0000 </r>
       <r>   81.8268    0.0000 </r>
       <r>   81.8622    0.0000 </r>
       <r>   81.8622    0.0000 </r>
       <r>   81.8622    0.0000 </r>
       <r>   82.4643    0.0000 </r>
      </set>
      <set comment="kpoint 2">
       <r>  -43.6476    1.0000 </r>
       <r>  -21.9307    1.0000 </r>
       <r>  -21.7668    1.0000 </r>
       <r>  -21.7668    1.0000 </r>
       <r>  -21.7248    1.0000 </r>
       <r>  -12.7480    1.0000 </r>
       <r>  -12.4456    1.0000 </r>
       <r>  -12.2909    1.0000 </r>
       <r>   -6.9610    1.0000 </r>
       <r>   -6.9610    1.0000 </r>
       <r>   -6.9333    1.0000 </r>
       <r>    1.6368    1.0000 </r>
       <r>    1.9941    1.0000 </r>
       <r>    1.9941    1.0000 </r>
       <r>    2.3875    1.0000 </r>
       <r>    2.3875    1.0000 </r>
       <r>    2.4393    1.0000 </r>
       <r>    2.6954    1.0000 </r>
       <r>    3.2222    1.0000 </r>
       <r>    3.2222    1.0000 </r>
       <r>    6.7778    0.0000 </r>
       <r>    7.2651    0.0000 </r>
       <r>    7.2651    0.0000 </r>
       <r>    8.5918    0.0000 </r>
       <r>    8.6122    0.0000 </r>
       <r>    9.7722    0.0000 </r>
       <r>   10.6868    0.0000 </r>
       <r>   11.4867    0.0000 </r>
       <r>   11.5745    0.0000 </r>
       <r>   11.9518    0.0000 </r>
       <r>   11.9518    0.0000 </r>
       <r>   17.3448    0.0000 </r>
       <r>   18.7367    0.0000 </r>
       <r>   18.7367    0.0000 </r>
       <r>   19.7932    0.0000 </r>
       <r>   21.3582    0.0000 </r>
       <r>   21.5905    0.0000 </r>
       <r>   21.6111    0.0000 </r>
       <r>   22.3683    0.0000 </r>
       <r>   22.3683    0.0000 </r>
       <r>   23.9294    0.0000 </r>
       <r>   25.0607    0.0000 </r>
       <r>   25.0607    0.0000 </r>
       <r>   26.5273    0.0000 </r>
       <r>   27.2540    0.0000 </r>
       <r>   27.2540    0.0000 </r>
       <r>   28.7397    0.0000 </r>
       <r>   29.7850    0.0000 </r>
       <r>   30.2691    0.0000 </r>
       <r>   30.2691    0.0000 </r>
       <r>   31.3303    0.0000 </r>
       <r>   31.5200    0.0000 </r>
       <r>   31.7610    0.0000 </r>
       <r>   32.5181    0.0000 </r>
       <r>   32.5181    0.0000 </r>
       <r>   34.2054    0.0000 </r>
       <r>   34.2054    0.0000 </r>
       <r>   34.3678    0.0000 </r>
       <r>   34.6310    0.0000 </r>
       <r>   36.5663    0.0000 </r>
       <r>   36.7850    0.0000 </r>
       <r>   36.8626    0.0000 </r>
       <r>   36.8626    0.0000 </r>
       <r>   36.9133    0.0000 </r>
       <r>   37.3049    0.0000 </r>
       <r>   37.8647    0.0000 </r>
       <r>   39.1536    0.0000 </r>
       <r>   39.8385    0.0000 </r>
       <r>   39.8385    0.0000 </r>
       <r>   39.9092    0.0000 </r>
       <r>   40.4134    0.0000 </r>
       <r>   40.4134    0.0000 </r>
       <r>   41.2968    0.0000 </r>
       <r>   41.2968    0.0000 </r>
       <r>   42.4113    0.0000 </r>
       <r>   43.0073    0.0000 </r>
       <r>   43.2627    0.0000 </r>
       <r>   44.8995    0.0000 </r>
       <r>   45.5770    0.0000 </r>
       <r>   45.5770    0.0000 </r>
       <r>   46.6686    0.0000 </r>
       <r>   47.5904    0.0000 </r>
       <r>   47.5904    0.0000 </r>
       <r>   47.8000    0.0000 </r>
       <r>   49.1444    0.0000 </r>
       <r>   49.1444    0.0000 </r>
       <r>   49.5652    0.0000 </r>
       <r>   50.4974    0.0000 </r>
       <r>   50.6288    0.0000 </r>
       <r>   50.6288    0.0000 </r>
       <r>   50.7473    0.0000 </r>
       <r>   51.1622    0.0000 </r>
       <r>   52.0268    0.0000 </r>
       <r>   52.0268    0.0000 </r>
       <r>   52.7255    0.0000 </r>
       <r>   54.3121    0.0000 </r>
       <r>   54.5948    0.0000 </r>
       <r>   55.1430    0.0000 </r>
       <r>   55.1430    0.0000 </r>
       <r>   56.5010    0.0000 </r>
       <r>   56.7916    0.0000 </r>
       <r>   58.1749    0.0000 </r>
       <r>   60.0720    0.0000 </r>
       <r>   60.3400    0.0000 </r>
       <r>   60.3400    0.0000 </r>
       <r>   60.5850    0.0000 </r>
       <r>   61.0912    0.0000 </r>
       <r>   61.3745    0.0000 </r>
       <r>   61.3745    0.0000 </r>
       <r>   61.9553    0.0000 </r>
       <r>   63.0926    0.0000 </r>
       <r>   63.0926    0.0000 </r>
       <r>   63.9693    0.0000 </r>
       <r>   64.6653    0.0000 </r>
       <r>   65.1822    0.0000 </r>
       <r>   65.6314    0.0000 </r>
       <r>   65.6314    0.0000 </r>
       <r>   65.6335    0.0000 </r>
       <r>   65.6749    0.0000 </r>
       <r>   67.6764    0.0000 </r>
       <r>   67.8266    0.0000 </r>
       <r>   67.8266    0.0000 </r>
       <r>   67.9094    0.0000 </r>
       <r>   68.8510    0.0000 </r>
       <r>   68.8510    0.0000 </r>
       <r>   69.1310    0.0000 </r>
       <r>   69.3190    0.0000 </r>
       <r>   70.4665    0.0000 </r>
       <r>   70.7708    0.0000 </r>
       <r>   71.3595    0.0000 </r>
       <r>   71.3595    0.0000 </r>
       <r>   72.3003    0.0000 </r>
       <r>   72.3003    0.0000 </r>
       <r>   73.4380    0.0000 </r>
       <r>   73.7593    0.0000 </r>
       <r>   73.7593    0.0000 </r>
       <r>   74.0420    0.0000 </r>
       <r>   74.1810    0.0000 </r>
       <r>   74.1810    0.0000 </r>
       <r>   74.6574    0.0000 </r>
       <r>   75.5851    0.0000 </r>
       <r>   75.9506    0.0000 </r>
       <r>   75.9506    0.0000 </r>
       <r>   76.3463    0.0000 </r>
       <r>   76.4549    0.0000 </r>
       <r>   76.6271    0.0000 </r>
       <r>   77.5005    0.0000 </r>
       <r>   77.5005    0.0000 </r>
       <r>   78.1004    0.0000 </r>
       <r>   78.1883    0.0000 </r>
       <r>   79.1026    0.0000 </r>
       <r>   79.9716    0.0000 </r>
       <r>   80.3771    0.0000 </r>
       <r>   80.7506    0.0000 </r>
       <r>   80.7506    0.0000 </r>
       <r>   81.1420    0.0000 </r>
       <r>   81.2694    0.0000 </r>
       <r>   81.6209    0.0000 </r>
       <r>   81.6209    0.0000 </r>
       <r>   81.6245    0.0000 </r>
      </set>
      <set comment="kpoint 3">
       <r>  -43.6462    1.0000 </r>
       <r>  -22.0523    1.0000 </r>
       <r>  -21.7638    1.0000 </r>
       <r>  -21.7638    1.0000 </r>
       <r>  -21.6827    1.0000 </r>
       <r>  -12.8333    1.0000 </r>
       <r>  -12.4348    1.0000 </r>
       <r>  -11.8539    1.0000 </r>
       <r>   -6.9296    1.0000 </r>
       <r>   -6.9296    1.0000 </r>
       <r>   -6.8474    1.0000 </r>
       <r>    0.5458    1.0000 </r>
       <r>    1.8058    1.0000 </r>
       <r>    1.8058    1.0000 </r>
       <r>    2.0176    1.0000 </r>
       <r>    2.0176    1.0000 </r>
       <r>    2.0309    1.0000 </r>
       <r>    2.1127    1.0000 </r>
       <r>    3.1107    1.0000 </r>
       <r>    3.1107    1.0000 </r>
       <r>    6.9837    0.0000 </r>
       <r>    8.4190    0.0000 </r>
       <r>    8.4190    0.0000 </r>
       <r>    9.4298    0.0000 </r>
       <r>    9.5569    0.0000 </r>
       <r>   10.6787    0.0000 </r>
       <r>   11.0273    0.0000 </r>
       <r>   11.0880    0.0000 </r>
       <r>   11.9933    0.0000 </r>
       <r>   11.9933    0.0000 </r>
       <r>   12.8893    0.0000 </r>
       <r>   16.3468    0.0000 </r>
       <r>   17.7370    0.0000 </r>
       <r>   19.4664    0.0000 </r>
       <r>   19.4664    0.0000 </r>
       <r>   20.3789    0.0000 </r>
       <r>   22.1424    0.0000 </r>
       <r>   22.1820    0.0000 </r>
       <r>   22.6773    0.0000 </r>
       <r>   22.6773    0.0000 </r>
       <r>   22.8656    0.0000 </r>
       <r>   22.8656    0.0000 </r>
       <r>   23.9373    0.0000 </r>
       <r>   26.0555    0.0000 </r>
       <r>   26.0555    0.0000 </r>
       <r>   26.6441    0.0000 </r>
       <r>   27.3366    0.0000 </r>
       <r>   29.0587    0.0000 </r>
       <r>   29.0587    0.0000 </r>
       <r>   29.4478    0.0000 </r>
       <r>   31.7460    0.0000 </r>
       <r>   31.7810    0.0000 </r>
       <r>   32.5691    0.0000 </r>
       <r>   34.0636    0.0000 </r>
       <r>   34.0636    0.0000 </r>
       <r>   34.6397    0.0000 </r>
       <r>   35.1145    0.0000 </r>
       <r>   35.4350    0.0000 </r>
       <r>   35.4350    0.0000 </r>
       <r>   35.9961    0.0000 </r>
       <r>   36.1350    0.0000 </r>
       <r>   36.3009    0.0000 </r>
       <r>   36.4071    0.0000 </r>
       <r>   36.4071    0.0000 </r>
       <r>   36.9056    0.0000 </r>
       <r>   39.6667    0.0000 </r>
       <r>   40.1951    0.0000 </r>
       <r>   40.1951    0.0000 </r>
       <r>   40.2335    0.0000 </r>
       <r>   40.9699    0.0000 </r>
       <r>   40.9699    0.0000 </r>
       <r>   41.5317    0.0000 </r>
       <r>   41.7896    0.0000 </r>
       <r>   41.9577    0.0000 </r>
       <r>   42.2914    0.0000 </r>
       <r>   42.2914    0.0000 </r>
       <r>   42.9848    0.0000 </r>
       <r>   45.2930    0.0000 </r>
       <r>   45.2930    0.0000 </r>
       <r>   45.8416    0.0000 </r>
       <r>   47.5537    0.0000 </r>
       <r>   47.5537    0.0000 </r>
       <r>   47.6101    0.0000 </r>
       <r>   47.8541    0.0000 </r>
       <r>   48.4161    0.0000 </r>
       <r>   49.8872    0.0000 </r>
       <r>   49.8872    0.0000 </r>
       <r>   50.3693    0.0000 </r>
       <r>   50.8276    0.0000 </r>
       <r>   50.8276    0.0000 </r>
       <r>   50.9229    0.0000 </r>
       <r>   52.4770    0.0000 </r>
       <r>   52.6959    0.0000 </r>
       <r>   52.7443    0.0000 </r>
       <r>   53.4072    0.0000 </r>
       <r>   53.4072    0.0000 </r>
       <r>   54.2869    0.0000 </r>
       <r>   54.6733    0.0000 </r>
       <r>   54.6733    0.0000 </r>
       <r>   56.7975    0.0000 </r>
       <r>   57.4090    0.0000 </r>
       <r>   58.2747    0.0000 </r>
       <r>   59.1095    0.0000 </r>
       <r>   59.1170    0.0000 </r>
       <r>   59.1170    0.0000 </r>
       <r>   59.9809    0.0000 </r>
       <r>   59.9809    0.0000 </r>
       <r>   60.1163    0.0000 </r>
       <r>   60.3040    0.0000 </r>
       <r>   60.8491    0.0000 </r>
       <r>   60.8840    0.0000 </r>
       <r>   63.0482    0.0000 </r>
       <r>   63.0482    0.0000 </r>
       <r>   65.0631    0.0000 </r>
       <r>   65.0631    0.0000 </r>
       <r>   65.1179    0.0000 </r>
       <r>   65.6147    0.0000 </r>
       <r>   65.8821    0.0000 </r>
       <r>   65.8821    0.0000 </r>
       <r>   66.1781    0.0000 </r>
       <r>   66.4410    0.0000 </r>
       <r>   67.2323    0.0000 </r>
       <r>   67.6903    0.0000 </r>
       <r>   69.3054    0.0000 </r>
       <r>   69.3054    0.0000 </r>
       <r>   70.0515    0.0000 </r>
       <r>   70.6070    0.0000 </r>
       <r>   70.6415    0.0000 </r>
       <r>   70.7508    0.0000 </r>
       <r>   70.7508    0.0000 </r>
       <r>   71.8946    0.0000 </r>
       <r>   72.0294    0.0000 </r>
       <r>   72.0294    0.0000 </r>
       <r>   73.1324    0.0000 </r>
       <r>   73.5997    0.0000 </r>
       <r>   74.0900    0.0000 </r>
       <r>   74.0900    0.0000 </r>
       <r>   74.3872    0.0000 </r>
       <r>   74.7090    0.0000 </r>
       <r>   74.7090    0.0000 </r>
       <r>   74.9774    0.0000 </r>
       <r>   75.7552    0.0000 </r>
       <r>   75.9662    0.0000 </r>
       <r>   76.8190    0.0000 </r>
       <r>   76.9913    0.0000 </r>
       <r>   76.9913    0.0000 </r>
       <r>   77.9816    0.0000 </r>
       <r>   77.9816    0.0000 </r>
       <r>   78.5239    0.0000 </r>
       <r>   78.5239    0.0000 </r>
       <r>   78.5647    0.0000 </r>
       <r>   79.2088    0.0000 </r>
       <r>   79.8452    0.0000 </r>
       <r>   80.1793    0.0000 </r>
       <r>   80.2508    0.0000 </r>
       <r>   80.5220    0.0000 </r>
       <r>   80.5220    0.0000 </r>
       <r>   81.0509    0.0000 </r>
       <r>   82.1823    0.0000 </r>
       <r>   82.1823    0.0000 </r>
      </set>
      <set comment="kpoint 4">
       <r>  -43.6455    1.0000 </r>
       <r>  -22.1065    1.0000 </r>
       <r>  -21.7624    1.0000 </r>
       <r>  -21.7624    1.0000 </r>
       <r>  -21.6664    1.0000 </r>
       <r>  -12.8845    1.0000 </r>
       <r>  -12.4294    1.0000 </r>
       <r>  -11.6097    1.0000 </r>
       <r>   -6.9136    1.0000 </r>
       <r>   -6.9136    1.0000 </r>
       <r>   -6.8048    1.0000 </r>
       <r>   -0.0205    1.0000 </r>
       <r>    1.6911    1.0000 </r>
       <r>    1.6911    1.0000 </r>
       <r>    1.8124    1.0000 </r>
       <r>    1.8803    1.0000 </r>
       <r>    1.8803    1.0000 </r>
       <r>    1.9673    1.0000 </r>
       <r>    3.0716    1.0000 </r>
       <r>    3.0716    1.0000 </r>
       <r>    7.1029    0.0000 </r>
       <r>    9.0715    0.0000 </r>
       <r>    9.0715    0.0000 </r>
       <r>    9.8825    0.0000 </r>
       <r>   10.0946    0.0000 </r>
       <r>   10.6594    0.0000 </r>
       <r>   10.7529    0.0000 </r>
       <r>   11.8821    0.0000 </r>
       <r>   11.8821    0.0000 </r>
       <r>   12.0126    0.0000 </r>
       <r>   14.4389    0.0000 </r>
       <r>   14.6012    0.0000 </r>
       <r>   16.3779    0.0000 </r>
       <r>   19.7864    0.0000 </r>
       <r>   20.7889    0.0000 </r>
       <r>   20.7889    0.0000 </r>
       <r>   20.8836    0.0000 </r>
       <r>   20.8836    0.0000 </r>
       <r>   22.6078    0.0000 </r>
       <r>   23.1526    0.0000 </r>
       <r>   23.1526    0.0000 </r>
       <r>   23.9281    0.0000 </r>
       <r>   24.3266    0.0000 </r>
       <r>   24.9446    0.0000 </r>
       <r>   25.1862    0.0000 </r>
       <r>   25.1862    0.0000 </r>
       <r>   26.6278    0.0000 </r>
       <r>   28.6872    0.0000 </r>
       <r>   28.6872    0.0000 </r>
       <r>   29.7107    0.0000 </r>
       <r>   32.5007    0.0000 </r>
       <r>   32.8324    0.0000 </r>
       <r>   33.0648    0.0000 </r>
       <r>   33.2558    0.0000 </r>
       <r>   34.0958    0.0000 </r>
       <r>   34.3757    0.0000 </r>
       <r>   34.8784    0.0000 </r>
       <r>   34.8784    0.0000 </r>
       <r>   35.2006    0.0000 </r>
       <r>   35.6104    0.0000 </r>
       <r>   35.6104    0.0000 </r>
       <r>   36.2136    0.0000 </r>
       <r>   36.2136    0.0000 </r>
       <r>   37.1201    0.0000 </r>
       <r>   37.2957    0.0000 </r>
       <r>   40.2026    0.0000 </r>
       <r>   40.2026    0.0000 </r>
       <r>   40.8466    0.0000 </r>
       <r>   41.1688    0.0000 </r>
       <r>   41.6507    0.0000 </r>
       <r>   41.6507    0.0000 </r>
       <r>   41.7234    0.0000 </r>
       <r>   43.1961    0.0000 </r>
       <r>   43.1961    0.0000 </r>
       <r>   43.6553    0.0000 </r>
       <r>   43.6725    0.0000 </r>
       <r>   44.8102    0.0000 </r>
       <r>   44.9366    0.0000 </r>
       <r>   44.9366    0.0000 </r>
       <r>   45.1557    0.0000 </r>
       <r>   45.5551    0.0000 </r>
       <r>   46.0115    0.0000 </r>
       <r>   46.0530    0.0000 </r>
       <r>   46.0530    0.0000 </r>
       <r>   47.6019    0.0000 </r>
       <r>   47.7108    0.0000 </r>
       <r>   50.7236    0.0000 </r>
       <r>   50.7236    0.0000 </r>
       <r>   51.3934    0.0000 </r>
       <r>   52.0476    0.0000 </r>
       <r>   52.0476    0.0000 </r>
       <r>   52.9835    0.0000 </r>
       <r>   54.3992    0.0000 </r>
       <r>   54.3992    0.0000 </r>
       <r>   54.6063    0.0000 </r>
       <r>   54.6897    0.0000 </r>
       <r>   56.0881    0.0000 </r>
       <r>   56.0881    0.0000 </r>
       <r>   56.1390    0.0000 </r>
       <r>   56.1825    0.0000 </r>
       <r>   56.3267    0.0000 </r>
       <r>   56.6967    0.0000 </r>
       <r>   56.6967    0.0000 </r>
       <r>   56.7918    0.0000 </r>
       <r>   57.8032    0.0000 </r>
       <r>   58.4799    0.0000 </r>
       <r>   58.6839    0.0000 </r>
       <r>   59.8987    0.0000 </r>
       <r>   59.8987    0.0000 </r>
       <r>   60.0231    0.0000 </r>
       <r>   60.0231    0.0000 </r>
       <r>   60.5617    0.0000 </r>
       <r>   63.7102    0.0000 </r>
       <r>   63.7102    0.0000 </r>
       <r>   64.6817    0.0000 </r>
       <r>   64.7135    0.0000 </r>
       <r>   64.8518    0.0000 </r>
       <r>   66.3493    0.0000 </r>
       <r>   66.4299    0.0000 </r>
       <r>   67.3901    0.0000 </r>
       <r>   68.1827    0.0000 </r>
       <r>   68.3446    0.0000 </r>
       <r>   68.3446    0.0000 </r>
       <r>   69.0246    0.0000 </r>
       <r>   69.0342    0.0000 </r>
       <r>   69.0342    0.0000 </r>
       <r>   70.2375    0.0000 </r>
       <r>   71.2440    0.0000 </r>
       <r>   71.2440    0.0000 </r>
       <r>   71.4996    0.0000 </r>
       <r>   71.6253    0.0000 </r>
       <r>   71.6253    0.0000 </r>
       <r>   72.8346    0.0000 </r>
       <r>   73.2710    0.0000 </r>
       <r>   73.4692    0.0000 </r>
       <r>   74.8055    0.0000 </r>
       <r>   74.9994    0.0000 </r>
       <r>   75.1527    0.0000 </r>
       <r>   75.1527    0.0000 </r>
       <r>   75.7552    0.0000 </r>
       <r>   75.7552    0.0000 </r>
       <r>   75.9881    0.0000 </r>
       <r>   76.0279    0.0000 </r>
       <r>   76.0279    0.0000 </r>
       <r>   76.5302    0.0000 </r>
       <r>   77.1467    0.0000 </r>
       <r>   77.1467    0.0000 </r>
       <r>   77.1831    0.0000 </r>
       <r>   77.8228    0.0000 </r>
       <r>   78.3302    0.0000 </r>
       <r>   78.3302    0.0000 </r>
       <r>   79.4906    0.0000 </r>
       <r>   79.5632    0.0000 </r>
       <r>   79.6968    0.0000 </r>
       <r>   79.7280    0.0000 </r>
       <r>   79.7918    0.0000 </r>
       <r>   79.7918    0.0000 </r>
       <r>   82.0612    0.0000 </r>
       <r>   82.1853    0.0000 </r>
       <r>   82.5059    0.0000 </r>
      </set>
      <set comment="kpoint 5">
       <r>  -43.6469    1.0000 </r>
       <r>  -21.9475    1.0000 </r>
       <r>  -21.8218    1.0000 </r>
       <r>  -21.7653    1.0000 </r>
       <r>  -21.6951    1.0000 </r>
       <r>  -12.6982    1.0000 </r>
       <r>  -12.3311    1.0000 </r>
       <r>  -12.2762    1.0000 </r>
       <r>   -7.0002    1.0000 </r>
       <r>   -6.9432    1.0000 </r>
       <r>   -6.8751    1.0000 </r>
       <r>    1.4337    1.0000 </r>
       <r>    1.6869    1.0000 </r>
       <r>    1.8765    1.0000 </r>
       <r>    1.9136    1.0000 </r>
       <r>    2.1795    1.0000 </r>
       <r>    2.5170    1.0000 </r>
       <r>    2.6353    1.0000 </r>
       <r>    2.9664    1.0000 </r>
       <r>    3.1102    1.0000 </r>
       <r>    7.3074    0.0000 </r>
       <r>    7.3718    0.0000 </r>
       <r>    7.5852    0.0000 </r>
       <r>    9.0291    0.0000 </r>
       <r>    9.0417    0.0000 </r>
       <r>   10.1293    0.0000 </r>
       <r>   11.1136    0.0000 </r>
       <r>   11.5065    0.0000 </r>
       <r>   11.8753    0.0000 </r>
       <r>   12.0124    0.0000 </r>
       <r>   12.0466    0.0000 </r>
       <r>   17.4406    0.0000 </r>
       <r>   17.9726    0.0000 </r>
       <r>   18.5498    0.0000 </r>
       <r>   20.4737    0.0000 </r>
       <r>   21.0404    0.0000 </r>
       <r>   21.7356    0.0000 </r>
       <r>   21.8004    0.0000 </r>
       <r>   21.8959    0.0000 </r>
       <r>   22.4972    0.0000 </r>
       <r>   22.6378    0.0000 </r>
       <r>   23.9298    0.0000 </r>
       <r>   24.5073    0.0000 </r>
       <r>   25.9912    0.0000 </r>
       <r>   26.9523    0.0000 </r>
       <r>   27.1825    0.0000 </r>
       <r>   29.3554    0.0000 </r>
       <r>   29.7334    0.0000 </r>
       <r>   29.9959    0.0000 </r>
       <r>   30.3266    0.0000 </r>
       <r>   31.7358    0.0000 </r>
       <r>   31.9508    0.0000 </r>
       <r>   32.2593    0.0000 </r>
       <r>   32.3853    0.0000 </r>
       <r>   32.9604    0.0000 </r>
       <r>   33.1455    0.0000 </r>
       <r>   34.1803    0.0000 </r>
       <r>   34.5489    0.0000 </r>
       <r>   35.4063    0.0000 </r>
       <r>   35.8845    0.0000 </r>
       <r>   36.3214    0.0000 </r>
       <r>   36.8268    0.0000 </r>
       <r>   37.1447    0.0000 </r>
       <r>   37.4462    0.0000 </r>
       <r>   37.8871    0.0000 </r>
       <r>   38.1048    0.0000 </r>
       <r>   38.4787    0.0000 </r>
       <r>   39.3876    0.0000 </r>
       <r>   39.6758    0.0000 </r>
       <r>   40.2506    0.0000 </r>
       <r>   40.4237    0.0000 </r>
       <r>   40.6078    0.0000 </r>
       <r>   42.3787    0.0000 </r>
       <r>   42.5053    0.0000 </r>
       <r>   43.0446    0.0000 </r>
       <r>   43.4976    0.0000 </r>
       <r>   43.8937    0.0000 </r>
       <r>   44.7208    0.0000 </r>
       <r>   45.0370    0.0000 </r>
       <r>   45.8242    0.0000 </r>
       <r>   46.7374    0.0000 </r>
       <r>   46.8848    0.0000 </r>
       <r>   46.9655    0.0000 </r>
       <r>   47.9452    0.0000 </r>
       <r>   48.4333    0.0000 </r>
       <r>   49.7208    0.0000 </r>
       <r>   49.7383    0.0000 </r>
       <r>   49.9396    0.0000 </r>
       <r>   50.1559    0.0000 </r>
       <r>   50.1869    0.0000 </r>
       <r>   51.1084    0.0000 </r>
       <r>   51.3008    0.0000 </r>
       <r>   52.7750    0.0000 </r>
       <r>   53.0797    0.0000 </r>
       <r>   53.2933    0.0000 </r>
       <r>   53.9141    0.0000 </r>
       <r>   55.5097    0.0000 </r>
       <r>   55.9357    0.0000 </r>
       <r>   56.9247    0.0000 </r>
       <r>   56.9778    0.0000 </r>
       <r>   57.2127    0.0000 </r>
       <r>   57.2381    0.0000 </r>
       <r>   57.9968    0.0000 </r>
       <r>   58.3680    0.0000 </r>
       <r>   59.8624    0.0000 </r>
       <r>   60.2576    0.0000 </r>
       <r>   60.6114    0.0000 </r>
       <r>   61.3259    0.0000 </r>
       <r>   61.9009    0.0000 </r>
       <r>   61.9360    0.0000 </r>
       <r>   63.0052    0.0000 </r>
       <r>   63.6761    0.0000 </r>
       <r>   63.9507    0.0000 </r>
       <r>   64.2165    0.0000 </r>
       <r>   64.5067    0.0000 </r>
       <r>   65.0409    0.0000 </r>
       <r>   65.9658    0.0000 </r>
       <r>   66.1815    0.0000 </r>
       <r>   66.2184    0.0000 </r>
       <r>   66.2661    0.0000 </r>
       <r>   66.6350    0.0000 </r>
       <r>   67.5264    0.0000 </r>
       <r>   68.2284    0.0000 </r>
       <r>   68.9103    0.0000 </r>
       <r>   68.9370    0.0000 </r>
       <r>   69.0633    0.0000 </r>
       <r>   69.2312    0.0000 </r>
       <r>   69.6797    0.0000 </r>
       <r>   70.0220    0.0000 </r>
       <r>   70.4133    0.0000 </r>
       <r>   70.9261    0.0000 </r>
       <r>   72.0462    0.0000 </r>
       <r>   72.0761    0.0000 </r>
       <r>   72.5295    0.0000 </r>
       <r>   72.9158    0.0000 </r>
       <r>   73.0626    0.0000 </r>
       <r>   73.7089    0.0000 </r>
       <r>   73.8390    0.0000 </r>
       <r>   74.8506    0.0000 </r>
       <r>   75.0410    0.0000 </r>
       <r>   75.4590    0.0000 </r>
       <r>   75.5773    0.0000 </r>
       <r>   75.7655    0.0000 </r>
       <r>   76.1940    0.0000 </r>
       <r>   76.7055    0.0000 </r>
       <r>   76.9992    0.0000 </r>
       <r>   77.7148    0.0000 </r>
       <r>   77.8396    0.0000 </r>
       <r>   78.2394    0.0000 </r>
       <r>   79.1957    0.0000 </r>
       <r>   79.4242    0.0000 </r>
       <r>   80.4194    0.0000 </r>
       <r>   80.4902    0.0000 </r>
       <r>   80.6259    0.0000 </r>
       <r>   80.7495    0.0000 </r>
       <r>   80.9357    0.0000 </r>
       <r>   81.1843    0.0000 </r>
       <r>   81.4083    0.0000 </r>
       <r>   81.8925    0.0000 </r>
       <r>   82.7629    0.0000 </r>
      </set>
      <set comment="kpoint 6">
       <r>  -43.6455    1.0000 </r>
       <r>  -22.0313    1.0000 </r>
       <r>  -21.8293    1.0000 </r>
       <r>  -21.7625    1.0000 </r>
       <r>  -21.6841    1.0000 </r>
       <r>  -12.7282    1.0000 </r>
       <r>  -12.3134    1.0000 </r>
       <r>  -11.8794    1.0000 </r>
       <r>   -6.9870    1.0000 </r>
       <r>   -6.9068    1.0000 </r>
       <r>   -6.8511    1.0000 </r>
       <r>    0.5218    1.0000 </r>
       <r>    1.1215    1.0000 </r>
       <r>    1.5637    1.0000 </r>
       <r>    1.7146    1.0000 </r>
       <r>    1.8419    1.0000 </r>
       <r>    2.1968    1.0000 </r>
       <r>    2.5937    1.0000 </r>
       <r>    2.8856    1.0000 </r>
       <r>    2.9749    1.0000 </r>
       <r>    7.5085    0.0000 </r>
       <r>    8.4537    0.0000 </r>
       <r>    8.4848    0.0000 </r>
       <r>    9.8196    0.0000 </r>
       <r>   10.0079    0.0000 </r>
       <r>   10.7710    0.0000 </r>
       <r>   11.2549    0.0000 </r>
       <r>   11.4045    0.0000 </r>
       <r>   12.0899    0.0000 </r>
       <r>   12.2516    0.0000 </r>
       <r>   13.1352    0.0000 </r>
       <r>   16.4956    0.0000 </r>
       <r>   17.7722    0.0000 </r>
       <r>   18.5632    0.0000 </r>
       <r>   18.6703    0.0000 </r>
       <r>   20.6326    0.0000 </r>
       <r>   21.2634    0.0000 </r>
       <r>   21.4210    0.0000 </r>
       <r>   21.9398    0.0000 </r>
       <r>   22.8857    0.0000 </r>
       <r>   22.9268    0.0000 </r>
       <r>   23.4228    0.0000 </r>
       <r>   24.0042    0.0000 </r>
       <r>   25.4149    0.0000 </r>
       <r>   26.6558    0.0000 </r>
       <r>   27.3220    0.0000 </r>
       <r>   27.4153    0.0000 </r>
       <r>   28.5091    0.0000 </r>
       <r>   28.8585    0.0000 </r>
       <r>   30.5508    0.0000 </r>
       <r>   31.6224    0.0000 </r>
       <r>   31.8527    0.0000 </r>
       <r>   32.6693    0.0000 </r>
       <r>   32.9742    0.0000 </r>
       <r>   33.6945    0.0000 </r>
       <r>   34.2239    0.0000 </r>
       <r>   34.6666    0.0000 </r>
       <r>   34.8253    0.0000 </r>
       <r>   35.2472    0.0000 </r>
       <r>   35.8371    0.0000 </r>
       <r>   35.9992    0.0000 </r>
       <r>   36.2014    0.0000 </r>
       <r>   36.4351    0.0000 </r>
       <r>   37.8462    0.0000 </r>
       <r>   38.4295    0.0000 </r>
       <r>   38.4936    0.0000 </r>
       <r>   38.8019    0.0000 </r>
       <r>   39.6321    0.0000 </r>
       <r>   40.5576    0.0000 </r>
       <r>   40.7395    0.0000 </r>
       <r>   41.1938    0.0000 </r>
       <r>   42.0309    0.0000 </r>
       <r>   42.4655    0.0000 </r>
       <r>   43.1618    0.0000 </r>
       <r>   43.5725    0.0000 </r>
       <r>   43.9179    0.0000 </r>
       <r>   44.2086    0.0000 </r>
       <r>   44.6263    0.0000 </r>
       <r>   45.4684    0.0000 </r>
       <r>   45.7320    0.0000 </r>
       <r>   46.7490    0.0000 </r>
       <r>   47.0272    0.0000 </r>
       <r>   47.4822    0.0000 </r>
       <r>   47.9062    0.0000 </r>
       <r>   48.3061    0.0000 </r>
       <r>   49.2955    0.0000 </r>
       <r>   49.5154    0.0000 </r>
       <r>   50.1054    0.0000 </r>
       <r>   50.4212    0.0000 </r>
       <r>   51.2113    0.0000 </r>
       <r>   51.6548    0.0000 </r>
       <r>   52.2340    0.0000 </r>
       <r>   52.5673    0.0000 </r>
       <r>   53.5486    0.0000 </r>
       <r>   54.2626    0.0000 </r>
       <r>   54.3437    0.0000 </r>
       <r>   55.2347    0.0000 </r>
       <r>   55.8143    0.0000 </r>
       <r>   56.0249    0.0000 </r>
       <r>   56.2215    0.0000 </r>
       <r>   56.8286    0.0000 </r>
       <r>   57.3081    0.0000 </r>
       <r>   57.9660    0.0000 </r>
       <r>   58.8803    0.0000 </r>
       <r>   58.9206    0.0000 </r>
       <r>   59.6962    0.0000 </r>
       <r>   59.8632    0.0000 </r>
       <r>   60.7060    0.0000 </r>
       <r>   61.5847    0.0000 </r>
       <r>   61.6444    0.0000 </r>
       <r>   62.0819    0.0000 </r>
       <r>   62.0924    0.0000 </r>
       <r>   62.7587    0.0000 </r>
       <r>   63.6896    0.0000 </r>
       <r>   64.0812    0.0000 </r>
       <r>   64.3383    0.0000 </r>
       <r>   65.1808    0.0000 </r>
       <r>   65.6213    0.0000 </r>
       <r>   65.6805    0.0000 </r>
       <r>   66.3202    0.0000 </r>
       <r>   66.7799    0.0000 </r>
       <r>   67.2991    0.0000 </r>
       <r>   67.3491    0.0000 </r>
       <r>   67.9013    0.0000 </r>
       <r>   67.9128    0.0000 </r>
       <r>   69.2686    0.0000 </r>
       <r>   69.8224    0.0000 </r>
       <r>   70.1514    0.0000 </r>
       <r>   70.3481    0.0000 </r>
       <r>   70.6352    0.0000 </r>
       <r>   71.2659    0.0000 </r>
       <r>   71.5368    0.0000 </r>
       <r>   72.0268    0.0000 </r>
       <r>   72.1867    0.0000 </r>
       <r>   72.7945    0.0000 </r>
       <r>   73.0498    0.0000 </r>
       <r>   73.7129    0.0000 </r>
       <r>   73.7464    0.0000 </r>
       <r>   73.9442    0.0000 </r>
       <r>   74.6852    0.0000 </r>
       <r>   75.1164    0.0000 </r>
       <r>   75.2734    0.0000 </r>
       <r>   75.4744    0.0000 </r>
       <r>   76.2154    0.0000 </r>
       <r>   76.7920    0.0000 </r>
       <r>   77.1867    0.0000 </r>
       <r>   77.6810    0.0000 </r>
       <r>   78.3379    0.0000 </r>
       <r>   78.9846    0.0000 </r>
       <r>   79.7533    0.0000 </r>
       <r>   79.8871    0.0000 </r>
       <r>   79.9815    0.0000 </r>
       <r>   80.3559    0.0000 </r>
       <r>   81.0221    0.0000 </r>
       <r>   81.3756    0.0000 </r>
       <r>   81.5584    0.0000 </r>
       <r>   81.8106    0.0000 </r>
       <r>   82.3416    0.0000 </r>
       <r>   82.4139    0.0000 </r>
       <r>   82.4571    0.0000 </r>
      </set>
      <set comment="kpoint 7">
       <r>  -43.6448    1.0000 </r>
       <r>  -22.0804    1.0000 </r>
       <r>  -21.8178    1.0000 </r>
       <r>  -21.7610    1.0000 </r>
       <r>  -21.6848    1.0000 </r>
       <r>  -12.7613    1.0000 </r>
       <r>  -12.3125    1.0000 </r>
       <r>  -11.6387    1.0000 </r>
       <r>   -6.9513    1.0000 </r>
       <r>   -6.8884    1.0000 </r>
       <r>   -6.8685    1.0000 </r>
       <r>   -0.0361    1.0000 </r>
       <r>    0.8961    1.0000 </r>
       <r>    1.5164    1.0000 </r>
       <r>    1.5902    1.0000 </r>
       <r>    1.7157    1.0000 </r>
       <r>    2.1009    1.0000 </r>
       <r>    2.5859    1.0000 </r>
       <r>    2.7893    1.0000 </r>
       <r>    2.9308    1.0000 </r>
       <r>    7.6055    0.0000 </r>
       <r>    9.0562    0.0000 </r>
       <r>    9.1224    0.0000 </r>
       <r>   10.2178    0.0000 </r>
       <r>   10.5496    0.0000 </r>
       <r>   10.8213    0.0000 </r>
       <r>   11.1677    0.0000 </r>
       <r>   11.5231    0.0000 </r>
       <r>   11.9678    0.0000 </r>
       <r>   12.8186    0.0000 </r>
       <r>   14.5188    0.0000 </r>
       <r>   14.6534    0.0000 </r>
       <r>   16.4728    0.0000 </r>
       <r>   19.2749    0.0000 </r>
       <r>   19.6552    0.0000 </r>
       <r>   19.8828    0.0000 </r>
       <r>   20.3120    0.0000 </r>
       <r>   20.8885    0.0000 </r>
       <r>   21.0705    0.0000 </r>
       <r>   23.3490    0.0000 </r>
       <r>   23.8524    0.0000 </r>
       <r>   24.4553    0.0000 </r>
       <r>   24.7934    0.0000 </r>
       <r>   25.3191    0.0000 </r>
       <r>   25.5476    0.0000 </r>
       <r>   25.5695    0.0000 </r>
       <r>   27.1324    0.0000 </r>
       <r>   27.9936    0.0000 </r>
       <r>   28.6266    0.0000 </r>
       <r>   31.0025    0.0000 </r>
       <r>   31.3983    0.0000 </r>
       <r>   31.4991    0.0000 </r>
       <r>   32.9484    0.0000 </r>
       <r>   33.0543    0.0000 </r>
       <r>   33.2349    0.0000 </r>
       <r>   33.6961    0.0000 </r>
       <r>   35.0363    0.0000 </r>
       <r>   35.3063    0.0000 </r>
       <r>   35.3203    0.0000 </r>
       <r>   35.7519    0.0000 </r>
       <r>   35.8466    0.0000 </r>
       <r>   36.2333    0.0000 </r>
       <r>   37.1260    0.0000 </r>
       <r>   37.9051    0.0000 </r>
       <r>   38.1641    0.0000 </r>
       <r>   38.2123    0.0000 </r>
       <r>   39.3477    0.0000 </r>
       <r>   40.0474    0.0000 </r>
       <r>   40.6970    0.0000 </r>
       <r>   40.9808    0.0000 </r>
       <r>   41.5010    0.0000 </r>
       <r>   42.4120    0.0000 </r>
       <r>   42.7125    0.0000 </r>
       <r>   43.3196    0.0000 </r>
       <r>   44.3714    0.0000 </r>
       <r>   44.5682    0.0000 </r>
       <r>   44.9385    0.0000 </r>
       <r>   45.1323    0.0000 </r>
       <r>   46.1124    0.0000 </r>
       <r>   46.2389    0.0000 </r>
       <r>   46.5447    0.0000 </r>
       <r>   46.7056    0.0000 </r>
       <r>   46.8711    0.0000 </r>
       <r>   47.5914    0.0000 </r>
       <r>   47.6512    0.0000 </r>
       <r>   48.9899    0.0000 </r>
       <r>   49.7013    0.0000 </r>
       <r>   50.7939    0.0000 </r>
       <r>   51.4565    0.0000 </r>
       <r>   51.9389    0.0000 </r>
       <r>   52.1003    0.0000 </r>
       <r>   52.4372    0.0000 </r>
       <r>   52.8060    0.0000 </r>
       <r>   52.9204    0.0000 </r>
       <r>   53.5817    0.0000 </r>
       <r>   54.0202    0.0000 </r>
       <r>   54.4056    0.0000 </r>
       <r>   54.4528    0.0000 </r>
       <r>   55.5549    0.0000 </r>
       <r>   57.0782    0.0000 </r>
       <r>   57.2734    0.0000 </r>
       <r>   57.6757    0.0000 </r>
       <r>   58.2441    0.0000 </r>
       <r>   58.8682    0.0000 </r>
       <r>   59.0479    0.0000 </r>
       <r>   59.3822    0.0000 </r>
       <r>   59.9588    0.0000 </r>
       <r>   60.3456    0.0000 </r>
       <r>   60.9143    0.0000 </r>
       <r>   60.9824    0.0000 </r>
       <r>   61.1804    0.0000 </r>
       <r>   61.4998    0.0000 </r>
       <r>   61.8867    0.0000 </r>
       <r>   63.6136    0.0000 </r>
       <r>   64.2613    0.0000 </r>
       <r>   64.6099    0.0000 </r>
       <r>   64.9895    0.0000 </r>
       <r>   65.0468    0.0000 </r>
       <r>   65.4206    0.0000 </r>
       <r>   65.9971    0.0000 </r>
       <r>   66.0428    0.0000 </r>
       <r>   66.2015    0.0000 </r>
       <r>   66.8231    0.0000 </r>
       <r>   67.8614    0.0000 </r>
       <r>   68.2105    0.0000 </r>
       <r>   68.7458    0.0000 </r>
       <r>   69.3706    0.0000 </r>
       <r>   69.7130    0.0000 </r>
       <r>   70.2474    0.0000 </r>
       <r>   71.3051    0.0000 </r>
       <r>   71.8869    0.0000 </r>
       <r>   72.3923    0.0000 </r>
       <r>   72.4907    0.0000 </r>
       <r>   72.6070    0.0000 </r>
       <r>   73.2115    0.0000 </r>
       <r>   73.4020    0.0000 </r>
       <r>   73.4337    0.0000 </r>
       <r>   73.5620    0.0000 </r>
       <r>   74.2693    0.0000 </r>
       <r>   75.1968    0.0000 </r>
       <r>   75.5381    0.0000 </r>
       <r>   75.7223    0.0000 </r>
       <r>   76.2407    0.0000 </r>
       <r>   77.0711    0.0000 </r>
       <r>   77.2409    0.0000 </r>
       <r>   77.7446    0.0000 </r>
       <r>   78.1121    0.0000 </r>
       <r>   78.4014    0.0000 </r>
       <r>   79.2223    0.0000 </r>
       <r>   79.4537    0.0000 </r>
       <r>   79.6334    0.0000 </r>
       <r>   79.7004    0.0000 </r>
       <r>   80.1351    0.0000 </r>
       <r>   80.5600    0.0000 </r>
       <r>   80.8540    0.0000 </r>
       <r>   80.9198    0.0000 </r>
       <r>   81.5470    0.0000 </r>
       <r>   81.5850    0.0000 </r>
       <r>   82.3287    0.0000 </r>
       <r>   82.7311    0.0000 </r>
      </set>
      <set comment="kpoint 8">
       <r>  -43.6442    1.0000 </r>
       <r>  -21.9967    1.0000 </r>
       <r>  -21.9257    1.0000 </r>
       <r>  -21.7598    1.0000 </r>
       <r>  -21.7100    1.0000 </r>
       <r>  -12.6379    1.0000 </r>
       <r>  -11.9424    1.0000 </r>
       <r>  -11.9148    1.0000 </r>
       <r>   -7.0380    1.0000 </r>
       <r>   -6.9172    1.0000 </r>
       <r>   -6.8604    1.0000 </r>
       <r>    0.3882    1.0000 </r>
       <r>    0.4957    1.0000 </r>
       <r>    0.5779    1.0000 </r>
       <r>    1.5091    1.0000 </r>
       <r>    1.5242    1.0000 </r>
       <r>    2.2627    1.0000 </r>
       <r>    2.6094    1.0000 </r>
       <r>    2.8094    1.0000 </r>
       <r>    3.2466    1.0000 </r>
       <r>    8.5229    0.0000 </r>
       <r>    8.5354    0.0000 </r>
       <r>    8.9805    0.0000 </r>
       <r>   10.4122    0.0000 </r>
       <r>   10.5409    0.0000 </r>
       <r>   11.1230    0.0000 </r>
       <r>   11.6435    0.0000 </r>
       <r>   11.8408    0.0000 </r>
       <r>   12.3448    0.0000 </r>
       <r>   12.9215    0.0000 </r>
       <r>   14.0081    0.0000 </r>
       <r>   16.4501    0.0000 </r>
       <r>   17.4168    0.0000 </r>
       <r>   17.6538    0.0000 </r>
       <r>   17.8937    0.0000 </r>
       <r>   18.0408    0.0000 </r>
       <r>   20.0290    0.0000 </r>
       <r>   20.3935    0.0000 </r>
       <r>   21.9719    0.0000 </r>
       <r>   22.7938    0.0000 </r>
       <r>   23.4024    0.0000 </r>
       <r>   24.8517    0.0000 </r>
[...]
       <r>   32.4968    0.0000 </r>
       <r>   32.4968    0.0000 </r>
       <r>   33.2846    0.0000 </r>
       <r>   33.2846    0.0000 </r>
       <r>   33.2846    0.0000 </r>
       <r>   38.8798    0.0000 </r>
       <r>   38.8798    0.0000 </r>
       <r>   38.8798    0.0000 </r>
       <r>   43.1729    0.0000 </r>
       <r>   43.1729    0.0000 </r>
       <r>   43.1729    0.0000 </r>
       <r>   43.4813    0.0000 </r>
       <r>   43.4813    0.0000 </r>
       <r>   43.4813    0.0000 </r>
       <r>   43.6197    0.0000 </r>
       <r>   43.8960    0.0000 </r>
       <r>   43.8960    0.0000 </r>
       <r>   43.8960    0.0000 </r>
       <r>   45.2813    0.0000 </r>
       <r>   45.2813    0.0000 </r>
       <r>   47.2766    0.0000 </r>
       <r>   47.3613    0.0000 </r>
       <r>   47.3613    0.0000 </r>
       <r>   47.3613    0.0000 </r>
       <r>   48.3412    0.0000 </r>
       <r>   48.3412    0.0000 </r>
       <r>   48.3412    0.0000 </r>
       <r>   48.5383    0.0000 </r>
       <r>   49.2434    0.0000 </r>
       <r>   49.2434    0.0000 </r>
       <r>   49.2434    0.0000 </r>
       <r>   51.7117    0.0000 </r>
       <r>   51.7117    0.0000 </r>
       <r>   52.3508    0.0000 </r>
       <r>   52.3508    0.0000 </r>
       <r>   52.3508    0.0000 </r>
       <r>   56.8055    0.0000 </r>
       <r>   57.4593    0.0000 </r>
       <r>   57.4593    0.0000 </r>
       <r>   57.4593    0.0000 </r>
       <r>   57.6945    0.0000 </r>
       <r>   57.6945    0.0000 </r>
       <r>   57.6945    0.0000 </r>
       <r>   58.3190    0.0000 </r>
       <r>   58.3190    0.0000 </r>
       <r>   58.3190    0.0000 </r>
       <r>   59.2184    0.0000 </r>
       <r>   59.2184    0.0000 </r>
       <r>   59.2184    0.0000 </r>
       <r>   60.3445    0.0000 </r>
       <r>   60.3445    0.0000 </r>
       <r>   60.4836    0.0000 </r>
       <r>   60.4836    0.0000 </r>
       <r>   60.4836    0.0000 </r>
       <r>   60.9320    0.0000 </r>
       <r>   60.9320    0.0000 </r>
       <r>   61.4116    0.0000 </r>
       <r>   61.7675    0.0000 </r>
       <r>   61.7675    0.0000 </r>
       <r>   61.7675    0.0000 </r>
       <r>   62.0888    0.0000 </r>
       <r>   62.0888    0.0000 </r>
       <r>   62.0888    0.0000 </r>
       <r>   66.0573    0.0000 </r>
       <r>   66.0573    0.0000 </r>
       <r>   66.0573    0.0000 </r>
       <r>   67.1557    0.0000 </r>
       <r>   67.1557    0.0000 </r>
       <r>   67.1557    0.0000 </r>
       <r>   68.3322    0.0000 </r>
       <r>   68.3322    0.0000 </r>
       <r>   68.4302    0.0000 </r>
       <r>   68.4302    0.0000 </r>
       <r>   68.4302    0.0000 </r>
       <r>   68.8612    0.0000 </r>
       <r>   69.6899    0.0000 </r>
       <r>   70.3443    0.0000 </r>
       <r>   70.3443    0.0000 </r>
       <r>   70.3443    0.0000 </r>
       <r>   71.0296    0.0000 </r>
       <r>   71.0296    0.0000 </r>
       <r>   71.7625    0.0000 </r>
       <r>   73.0952    0.0000 </r>
       <r>   73.4045    0.0000 </r>
       <r>   73.4045    0.0000 </r>
       <r>   73.4045    0.0000 </r>
       <r>   73.5039    0.0000 </r>
       <r>   73.5039    0.0000 </r>
       <r>   73.5039    0.0000 </r>
       <r>   78.5607    0.0000 </r>
       <r>   78.5607    0.0000 </r>
       <r>   78.5607    0.0000 </r>
       <r>   78.8211    0.0000 </r>
       <r>   80.2180    0.0000 </r>
       <r>   80.2180    0.0000 </r>
       <r>   80.2180    0.0000 </r>
       <r>   80.6932    0.0000 </r>
       <r>   80.6932    0.0000 </r>
       <r>   80.9171    0.0000 </r>
       <r>   80.9171    0.0000 </r>
       <r>   80.9171    0.0000 </r>
       <r>   81.6021    0.0000 </r>
       <r>   81.6021    0.0000 </r>
      </set>
     </set>
    </set>
   </array>
  </eigenvalues>
  <separator name="orbital magnetization" >
   <v name="MAGDIPOLOUT">      0.00000000      0.00000000      0.00000000</v>
  </separator>
  <dos>
   <i name="efermi">      4.09334443 </i>
   <total>
    <array>
     <dimension dim="1">gridpoints</dimension>
     <dimension dim="2">spin</dimension>
     <field>energy</field>
     <field>total</field>
     <field>integrated</field>
     <set>
      <set comment="spin 1">
       <r>   -49.9927     0.0000     0.0000 </r>
       <r>   -49.5275     0.0000     0.0000 </r>
       <r>   -49.0622     0.0000     0.0000 </r>
       <r>   -48.5969     0.0000     0.0000 </r>
       <r>   -48.1317     0.0000     0.0000 </r>
       <r>   -47.6664     0.0000     0.0000 </r>
       <r>   -47.2012     0.0000     0.0000 </r>
       <r>   -46.7359     0.0000     0.0000 </r>
       <r>   -46.2707     0.0000     0.0000 </r>
       <r>   -45.8054     0.0000     0.0000 </r>
       <r>   -45.3401     0.0000     0.0000 </r>
       <r>   -44.8749     0.0000     0.0000 </r>
       <r>   -44.4096     0.0000     0.0000 </r>
       <r>   -43.9444     0.0000     0.0000 </r>
       <r>   -43.4791     4.2987     2.0000 </r>
       <r>   -43.0139     0.0000     2.0000 </r>
       <r>   -42.5486     0.0000     2.0000 </r>
       <r>   -42.0834     0.0000     2.0000 </r>
       <r>   -41.6181     0.0000     2.0000 </r>
       <r>   -41.1528     0.0000     2.0000 </r>
       <r>   -40.6876     0.0000     2.0000 </r>
       <r>   -40.2223     0.0000     2.0000 </r>
       <r>   -39.7571     0.0000     2.0000 </r>
       <r>   -39.2918     0.0000     2.0000 </r>
       <r>   -38.8266     0.0000     2.0000 </r>
       <r>   -38.3613     0.0000     2.0000 </r>
       <r>   -37.8960     0.0000     2.0000 </r>
       <r>   -37.4308     0.0000     2.0000 </r>
       <r>   -36.9655     0.0000     2.0000 </r>
       <r>   -36.5003     0.0000     2.0000 </r>
       <r>   -36.0350     0.0000     2.0000 </r>
       <r>   -35.5698     0.0000     2.0000 </r>
       <r>   -35.1045     0.0000     2.0000 </r>
       <r>   -34.6392     0.0000     2.0000 </r>
       <r>   -34.1740     0.0000     2.0000 </r>
       <r>   -33.7087     0.0000     2.0000 </r>
       <r>   -33.2435     0.0000     2.0000 </r>
       <r>   -32.7782     0.0000     2.0000 </r>
       <r>   -32.3130     0.0000     2.0000 </r>
       <r>   -31.8477     0.0000     2.0000 </r>
       <r>   -31.3825     0.0000     2.0000 </r>
       <r>   -30.9172     0.0000     2.0000 </r>
       <r>   -30.4519     0.0000     2.0000 </r>
       <r>   -29.9867     0.0000     2.0000 </r>
       <r>   -29.5214     0.0000     2.0000 </r>
       <r>   -29.0562     0.0000     2.0000 </r>
       <r>   -28.5909     0.0000     2.0000 </r>
       <r>   -28.1257     0.0000     2.0000 </r>
       <r>   -27.6604     0.0000     2.0000 </r>
       <r>   -27.1951     0.0000     2.0000 </r>
       <r>   -26.7299     0.0000     2.0000 </r>
       <r>   -26.2646     0.0000     2.0000 </r>
       <r>   -25.7994     0.0000     2.0000 </r>
       <r>   -25.3341     0.0000     2.0000 </r>
       <r>   -24.8689     0.0000     2.0000 </r>
       <r>   -24.4036     0.0000     2.0000 </r>
       <r>   -23.9384     0.0000     2.0000 </r>
       <r>   -23.4731     0.0000     2.0000 </r>
       <r>   -23.0078     0.0000     2.0000 </r>
       <r>   -22.5426     0.0000     2.0000 </r>
       <r>   -22.0773     0.3637     2.1692 </r>
       <r>   -21.6121    15.7500     9.9818 </r>
       <r>   -21.1468     0.0000    10.0000 </r>
       <r>   -20.6816     0.0000    10.0000 </r>
       <r>   -20.2163     0.0000    10.0000 </r>
       <r>   -19.7510     0.0000    10.0000 </r>
       <r>   -19.2858     0.0000    10.0000 </r>
       <r>   -18.8205     0.0000    10.0000 </r>
       <r>   -18.3553     0.0000    10.0000 </r>
       <r>   -17.8900     0.0000    10.0000 </r>
       <r>   -17.4248     0.0000    10.0000 </r>
       <r>   -16.9595     0.0000    10.0000 </r>
       <r>   -16.4943     0.0000    10.0000 </r>
       <r>   -16.0290     0.0000    10.0000 </r>
       <r>   -15.5637     0.0000    10.0000 </r>
       <r>   -15.0985     0.0000    10.0000 </r>
       <r>   -14.6332     0.0000    10.0000 </r>
       <r>   -14.1680     0.0000    10.0000 </r>
       <r>   -13.7027     0.0000    10.0000 </r>
       <r>   -13.2375     0.0000    10.0000 </r>
       <r>   -12.7722     0.3546    10.1650 </r>
       <r>   -12.3069     3.7884    12.2461 </r>
       <r>   -11.8417     4.0876    14.7936 </r>
       <r>   -11.3764     2.1493    16.0000 </r>
       <r>   -10.9112     0.0000    16.0000 </r>
       <r>   -10.4459     0.0000    16.0000 </r>
       <r>    -9.9807     0.0000    16.0000 </r>
       <r>    -9.5154     0.0000    16.0000 </r>
       <r>    -9.0501     0.0000    16.0000 </r>
       <r>    -8.5849     0.0000    16.0000 </r>
       <r>    -8.1196     0.0000    16.0000 </r>
       <r>    -7.6544     0.0000    16.0000 </r>
       <r>    -7.1891     1.2066    16.5614 </r>
       <r>    -6.7239    10.7127    21.9953 </r>
       <r>    -6.2586     0.0000    22.0000 </r>
       <r>    -5.7934     0.0000    22.0000 </r>
       <r>    -5.3281     0.0000    22.0000 </r>
       <r>    -4.8628     0.0000    22.0000 </r>
       <r>    -4.3976     0.0000    22.0000 </r>
       <r>    -3.9323     0.0000    22.0000 </r>
       <r>    -3.4671     0.0000    22.0000 </r>
       <r>    -3.0018     0.0000    22.0000 </r>
       <r>    -2.5366     0.0000    22.0000 </r>
       <r>    -2.0713     0.0000    22.0000 </r>
       <r>    -1.6060     0.0000    22.0000 </r>
       <r>    -1.1408     0.0000    22.0000 </r>
       <r>    -0.6755     0.0000    22.0000 </r>
       <r>    -0.2103     0.0001    22.0000 </r>
       <r>     0.2550     2.5428    23.1831 </r>
       <r>     0.7202     5.7023    25.8476 </r>
       <r>     1.1855     2.4378    27.1620 </r>
       <r>     1.6507     5.9654    30.3512 </r>
       <r>     2.1160     3.7653    32.7518 </r>
       <r>     2.5813     2.5346    34.3021 </r>
       <r>     3.0465     6.9358    38.1168 </r>
       <r>     3.5118     2.9638    39.8909 </r>
       <r>     3.9770     0.0000    40.0000 </r>
       <r>     4.4423     0.0000    40.0000 </r>
       <r>     4.9075     0.0000    40.0000 </r>
       <r>     5.3728     0.0000    40.0000 </r>
       <r>     5.8381     0.0000    40.0000 </r>
       <r>     6.3033     0.0000    40.0000 </r>
       <r>     6.7686     0.1065    40.0496 </r>
       <r>     7.2338     0.2285    40.1896 </r>
       <r>     7.6991     1.7160    41.0782 </r>
       <r>     8.1643     0.8853    41.5060 </r>
       <r>     8.6296     2.7301    42.7887 </r>
       <r>     9.0949     2.5678    44.3803 </r>
       <r>     9.5601     3.0495    46.1669 </r>
       <r>    10.0254     1.6490    47.1931 </r>
       <r>    10.4906     3.0873    48.7818 </r>
       <r>    10.9559     3.6660    51.0119 </r>
       <r>    11.4211     3.9883    53.0148 </r>
       <r>    11.8864     4.1354    55.1677 </r>
       <r>    12.3516     5.0596    57.7761 </r>
       <r>    12.8169     1.8984    58.7258 </r>
       <r>    13.2822     1.1105    59.3791 </r>
       <r>    13.7474     0.7161    59.8333 </r>
       <r>    14.2127     1.6988    60.6237 </r>
       <r>    14.6779     2.1654    61.6834 </r>
       <r>    15.1432     1.0024    62.2558 </r>
       <r>    15.6084     0.7084    62.7185 </r>
       <r>    16.0737     0.2194    62.8521 </r>
       <r>    16.5390     1.5848    63.5984 </r>
       <r>    17.0042     2.7815    65.0627 </r>
       <r>    17.4695     1.7092    65.9804 </r>
       <r>    17.9347     3.0307    67.5304 </r>
       <r>    18.4000     2.4738    69.0312 </r>
       <r>    18.8652     2.0498    70.0370 </r>
       <r>    19.3305     1.4700    70.7210 </r>
       <r>    19.7957     1.4939    71.5654 </r>
       <r>    20.2610     1.8685    72.7141 </r>
       <r>    20.7263     2.1443    73.8146 </r>
       <r>    21.1915     1.8077    75.0077 </r>
       <r>    21.6568     3.6468    76.9328 </r>
       <r>    22.1220     2.5570    78.2189 </r>
       <r>    22.5873     1.5926    79.0533 </r>
       <r>    23.0525     3.5515    80.8289 </r>
       <r>    23.5178     2.2657    81.9247 </r>
       <r>    23.9831     1.7505    82.7405 </r>
       <r>    24.4483     2.5898    84.1246 </r>
       <r>    24.9136     3.1082    85.8352 </r>
       <r>    25.3788     2.2111    87.1583 </r>
       <r>    25.8441     1.9086    88.2406 </r>
       <r>    26.3093     2.0289    89.1847 </r>
       <r>    26.7746     2.5821    90.3883 </r>
       <r>    27.2398     2.9259    91.7503 </r>
       <r>    27.7051     2.2889    93.2619 </r>
       <r>    28.1704     2.3811    94.3874 </r>
       <r>    28.6356     1.6766    95.2439 </r>
       <r>    29.1009     2.4206    96.4781 </r>
       <r>    29.5661     1.2549    97.2228 </r>
       <r>    30.0314     1.6390    97.9854 </r>
       <r>    30.4966     1.7450    99.3955 </r>
       <r>    30.9619     2.8198   101.2382 </r>
       <r>    31.4272     1.5332   102.1485 </r>
       <r>    31.8924     4.3201   104.1826 </r>
       <r>    32.3577     3.3450   105.8803 </r>
       <r>    32.8229     2.9413   107.4427 </r>
       <r>    33.2882     5.4473   110.0437 </r>
       <r>    33.7534     3.3498   112.0601 </r>
       <r>    34.2187     2.4340   113.4569 </r>
       <r>    34.6840     3.1958   115.2590 </r>
       <r>    35.1492     3.5402   117.2863 </r>
       <r>    35.6145     4.8812   119.8274 </r>
       <r>    36.0797     4.2591   121.8490 </r>
       <r>    36.5450     5.4844   124.4686 </r>
       <r>    37.0102     1.1324   125.1287 </r>
       <r>    37.4755     2.9895   126.7530 </r>
       <r>    37.9407     2.9587   128.2575 </r>
       <r>    38.4060     4.2216   130.3659 </r>
       <r>    38.8713     2.4174   132.0080 </r>
       <r>    39.3365     1.1787   132.6504 </r>
       <r>    39.8018     3.5649   134.4827 </r>
       <r>    40.2670     2.8195   135.9508 </r>
       <r>    40.7323     3.8219   137.9189 </r>
       <r>    41.1975     2.8130   139.4863 </r>
       <r>    41.6628     2.0571   140.5509 </r>
       <r>    42.1281     2.7830   142.0819 </r>
       <r>    42.5933     3.5103   143.8689 </r>
       <r>    43.0586     2.6637   145.4338 </r>
       <r>    43.5238     2.7876   146.8807 </r>
       <r>    43.9891     3.7389   148.9711 </r>
       <r>    44.4543     3.3599   150.6465 </r>
       <r>    44.9196     3.6011   152.4571 </r>
       <r>    45.3848     4.4878   154.8576 </r>
       <r>    45.8501     3.8067   156.8769 </r>
       <r>    46.3154     1.8615   157.8846 </r>
       <r>    46.7806     4.5800   160.1101 </r>
       <r>    47.2459     3.6169   162.5919 </r>
       <r>    47.7111     3.9991   164.6855 </r>
       <r>    48.1764     2.7734   166.1812 </r>
       <r>    48.6416     2.8837   167.5825 </r>
       <r>    49.1069     3.2506   169.4661 </r>
       <r>    49.5722     2.5109   170.9056 </r>
       <r>    50.0374     3.6628   173.0468 </r>
       <r>    50.5027     4.0948   175.0779 </r>
       <r>    50.9679     3.7691   176.9481 </r>
       <r>    51.4332     3.5048   178.6266 </r>
       <r>    51.8984     3.5973   180.4330 </r>
       <r>    52.3637     2.9673   182.2793 </r>
       <r>    52.8290     4.5637   184.7740 </r>
       <r>    53.2942     3.2047   186.3652 </r>
       <r>    53.7595     3.0021   187.8417 </r>
       <r>    54.2247     4.4413   189.9323 </r>
       <r>    54.6900     2.4753   191.3836 </r>
       <r>    55.1552     1.7846   192.5114 </r>
       <r>    55.6205     4.9760   195.1513 </r>
       <r>    56.0857     2.6341   196.4398 </r>
       <r>    56.5510     3.7989   198.5736 </r>
       <r>    57.0163     2.9689   200.0388 </r>
       <r>    57.4815     4.9181   202.6679 </r>
       <r>    57.9468     4.3724   204.8398 </r>
       <r>    58.4120     3.2005   206.7029 </r>
       <r>    58.8773     3.6683   208.6828 </r>
       <r>    59.3425     3.1713   210.7399 </r>
       <r>    59.8078     2.8842   212.3141 </r>
       <r>    60.2731     3.1388   214.1748 </r>
       <r>    60.7383     4.7208   216.8611 </r>
       <r>    61.2036     5.4784   219.9100 </r>
       <r>    61.6688     4.6863   222.4304 </r>
       <r>    62.1341     2.6086   223.9174 </r>
       <r>    62.5993     2.8975   225.6074 </r>
       <r>    63.0646     4.4197   227.7537 </r>
       <r>    63.5298     2.7909   229.3685 </r>
       <r>    63.9951     2.8500   230.8920 </r>
       <r>    64.4604     3.4143   232.8046 </r>
       <r>    64.9256     2.9826   234.7066 </r>
       <r>    65.3909     4.0865   236.8296 </r>
       <r>    65.8561     6.0191   240.0550 </r>
       <r>    66.3214     5.7786   242.9942 </r>
       <r>    66.7866     2.1484   244.2788 </r>
       <r>    67.2519     3.5264   246.3741 </r>
       <r>    67.7172     4.1507   248.7568 </r>
       <r>    68.1824     4.0918   250.7933 </r>
       <r>    68.6477     2.5975   252.5289 </r>
       <r>    69.1129     4.1275   254.5419 </r>
       <r>    69.5782     2.9727   256.0599 </r>
       <r>    70.0434     4.0412   258.1773 </r>
       <r>    70.5087     3.6416   260.2316 </r>
       <r>    70.9739     4.4746   262.3539 </r>
       <r>    71.4392     4.3480   264.5970 </r>
       <r>    71.9045     3.6580   266.7620 </r>
       <r>    72.3697     3.4490   268.6419 </r>
       <r>    72.8350     5.1924   271.2863 </r>
       <r>    73.3002     4.4332   273.4251 </r>
       <r>    73.7655     4.4269   275.6065 </r>
       <r>    74.2307     3.6963   277.5205 </r>
       <r>    74.6960     3.5822   279.4445 </r>
       <r>    75.1613     2.9427   281.1656 </r>
       <r>    75.6265     4.4733   283.5512 </r>
       <r>    76.0918     3.6411   285.2687 </r>
       <r>    76.5570     4.8698   287.6276 </r>
       <r>    77.0223     4.6687   289.8226 </r>
       <r>    77.4875     2.1085   291.4995 </r>
       <r>    77.9528     5.3607   294.3758 </r>
       <r>    78.4181     4.9447   297.2115 </r>
       <r>    78.8833     4.3768   299.3442 </r>
       <r>    79.3486     2.6587   300.8029 </r>
       <r>    79.8138     4.8132   303.1120 </r>
       <r>    80.2791     3.6983   305.4659 </r>
       <r>    80.7443     5.4434   308.4344 </r>
       <r>    81.2096     6.0474   311.4902 </r>
       <r>    81.6748     4.5622   313.9105 </r>
       <r>    82.1401     3.7832   316.0111 </r>
       <r>    82.6054     4.3076   318.4857 </r>
       <r>    83.0706     1.8892   319.6568 </r>
       <r>    83.5359     0.2388   320.0000 </r>
       <r>    84.0011     0.0000   320.0000 </r>
       <r>    84.4664     0.0000   320.0000 </r>
       <r>    84.9316     0.0000   320.0000 </r>
       <r>    85.3969     0.0000   320.0000 </r>
       <r>    85.8622     0.0000   320.0000 </r>
       <r>    86.3274     0.0000   320.0000 </r>
       <r>    86.7927     0.0000   320.0000 </r>
       <r>    87.2579     0.0000   320.0000 </r>
       <r>    87.7232     0.0000   320.0000 </r>
       <r>    88.1884     0.0000   320.0000 </r>
       <r>    88.6537     0.0000   320.0000 </r>
       <r>    89.1189     0.0000   320.0000 </r>
       <r>    89.5842     0.0000   320.0000 </r>
      </set>
     </set>
    </array>
   </total>
  </dos>
 </calculation>
 <structure name="finalpos" >
  <crystal>
   <varray name="basis" >
    <v>       4.23545769      -0.00000000       0.00000000 </v>
    <v>      -0.00000000       4.23545769       0.00000000 </v>
    <v>      -0.00000000      -0.00000000       4.23545769 </v>
   </varray>
   <i name="volume">     75.98030667 </i>
   <varray name="rec_basis" >
    <v>       0.23610199       0.00000000       0.00000000 </v>
    <v>       0.00000000       0.23610199       0.00000000 </v>
    <v>      -0.00000000      -0.00000000       0.23610199 </v>
   </varray>
  </crystal>
  <varray name="positions" >
   <v>       0.00000000       0.00000000       0.00000000 </v>
   <v>       0.50000000       0.50000000       0.50000000 </v>
   <v>       0.50000000       0.50000000       0.00000000 </v>
   <v>       0.50000000       0.00000000       0.50000000 </v>
   <v>       0.00000000       0.50000000       0.50000000 </v>
  </varray>
 </structure>
</modeling>
