BaZrO3 SCF                              
           1
     4.192000    0.000000    0.000000
     0.000000    4.192000    0.000000
     0.000000    0.000000    4.192000
   Ba   Zr   O 
     1     1     3
Direct configuration=     1
   0.00000000  0.00000000  0.00000000
   0.50000000  0.50000000  0.50000000
   0.50000000  0.50000000  0.00000000
   0.50000000  0.00000000  0.50000000
   0.00000000  0.50000000  0.50000000
BaZrO3 SCF                              
           1
     4.282948   -0.000000    0.000000
    -0.000000    4.282948    0.000000
    -0.000000   -0.000000    4.282948
   Ba   Zr   O 
     1     1     3
Direct configuration=     2
   0.00000000  1.00000000  0.00000000
   0.50000000  0.50000000  0.50000000
   0.50000000  0.50000000  0.00000000
   0.50000000  1.00000000  0.50000000
   1.00000000  0.50000000  0.50000000
BaZrO3 SCF                              
           1
     4.235458   -0.000000    0.000000
    -0.000000    4.235458    0.000000
    -0.000000   -0.000000    4.235458
   Ba   Zr   O 
     1     1     3
Direct configuration=     3
   0.00000000  0.00000000  0.00000000
   0.50000000  0.50000000  0.50000000
   0.50000000  0.50000000  0.00000000
   0.50000000  0.00000000  0.50000000
   0.00000000  0.50000000  0.50000000
